+ 0.5 0 1 tcp 40 ------- 1 0.0 2.0 0 0
- 0.5 0 1 tcp 40 ------- 1 0.0 2.0 0 0
r 0.51532 0 1 tcp 40 ------- 1 0.0 2.0 0 0
+ 0.51532 1 2 tcp 40 ------- 1 0.0 2.0 0 0
- 0.51532 1 2 tcp 40 ------- 1 0.0 2.0 0 0
r 0.53064 1 2 tcp 40 ------- 1 0.0 2.0 0 0
+ 0.53064 2 1 ack 40 ------- 1 2.0 0.0 0 1
- 0.53064 2 1 ack 40 ------- 1 2.0 0.0 0 1
r 0.54596 2 1 ack 40 ------- 1 2.0 0.0 0 1
+ 0.54596 1 0 ack 40 ------- 1 2.0 0.0 0 1
- 0.54596 1 0 ack 40 ------- 1 2.0 0.0 0 1
r 0.56128 1 0 ack 40 ------- 1 2.0 0.0 0 1
+ 0.56128 0 1 tcp 1040 ------- 1 0.0 2.0 1 2
- 0.56128 0 1 tcp 1040 ------- 1 0.0 2.0 1 2
+ 0.56128 0 1 tcp 1040 ------- 1 0.0 2.0 2 3
- 0.5696 0 1 tcp 1040 ------- 1 0.0 2.0 2 3
r 0.5846 0 1 tcp 1040 ------- 1 0.0 2.0 1 2
+ 0.5846 1 2 tcp 1040 ------- 1 0.0 2.0 1 2
- 0.5846 1 2 tcp 1040 ------- 1 0.0 2.0 1 2
r 0.59292 0 1 tcp 1040 ------- 1 0.0 2.0 2 3
+ 0.59292 1 2 tcp 1040 ------- 1 0.0 2.0 2 3
- 0.59292 1 2 tcp 1040 ------- 1 0.0 2.0 2 3
r 0.60792 1 2 tcp 1040 ------- 1 0.0 2.0 1 2
+ 0.60792 2 1 ack 40 ------- 1 2.0 0.0 1 4
- 0.60792 2 1 ack 40 ------- 1 2.0 0.0 1 4
r 0.61624 1 2 tcp 1040 ------- 1 0.0 2.0 2 3
+ 0.61624 2 1 ack 40 ------- 1 2.0 0.0 2 5
- 0.61624 2 1 ack 40 ------- 1 2.0 0.0 2 5
r 0.62324 2 1 ack 40 ------- 1 2.0 0.0 1 4
+ 0.62324 1 0 ack 40 ------- 1 2.0 0.0 1 4
- 0.62324 1 0 ack 40 ------- 1 2.0 0.0 1 4
r 0.63156 2 1 ack 40 ------- 1 2.0 0.0 2 5
+ 0.63156 1 0 ack 40 ------- 1 2.0 0.0 2 5
- 0.63156 1 0 ack 40 ------- 1 2.0 0.0 2 5
r 0.63856 1 0 ack 40 ------- 1 2.0 0.0 1 4
+ 0.63856 0 1 tcp 1040 ------- 1 0.0 2.0 3 6
- 0.63856 0 1 tcp 1040 ------- 1 0.0 2.0 3 6
r 0.64688 1 0 ack 40 ------- 1 2.0 0.0 2 5
+ 0.65 0 1 tcp 1040 ------- 1 0.0 2.0 4 7
- 0.65 0 1 tcp 1040 ------- 1 0.0 2.0 4 7
r 0.66188 0 1 tcp 1040 ------- 1 0.0 2.0 3 6
+ 0.66188 1 2 tcp 1040 ------- 1 0.0 2.0 3 6
- 0.66188 1 2 tcp 1040 ------- 1 0.0 2.0 3 6
r 0.67332 0 1 tcp 1040 ------- 1 0.0 2.0 4 7
+ 0.67332 1 2 tcp 1040 ------- 1 0.0 2.0 4 7
- 0.67332 1 2 tcp 1040 ------- 1 0.0 2.0 4 7
r 0.6852 1 2 tcp 1040 ------- 1 0.0 2.0 3 6
+ 0.6852 2 1 ack 40 ------- 1 2.0 0.0 3 8
- 0.6852 2 1 ack 40 ------- 1 2.0 0.0 3 8
r 0.69664 1 2 tcp 1040 ------- 1 0.0 2.0 4 7
+ 0.69664 2 1 ack 40 ------- 1 2.0 0.0 4 9
- 0.69664 2 1 ack 40 ------- 1 2.0 0.0 4 9
+ 0.7 0 1 tcp 1040 ------- 1 0.0 2.0 5 10
- 0.7 0 1 tcp 1040 ------- 1 0.0 2.0 5 10
r 0.70052 2 1 ack 40 ------- 1 2.0 0.0 3 8
+ 0.70052 1 0 ack 40 ------- 1 2.0 0.0 3 8
- 0.70052 1 0 ack 40 ------- 1 2.0 0.0 3 8
r 0.71196 2 1 ack 40 ------- 1 2.0 0.0 4 9
+ 0.71196 1 0 ack 40 ------- 1 2.0 0.0 4 9
- 0.71196 1 0 ack 40 ------- 1 2.0 0.0 4 9
r 0.71584 1 0 ack 40 ------- 1 2.0 0.0 3 8
r 0.72332 0 1 tcp 1040 ------- 1 0.0 2.0 5 10
+ 0.72332 1 2 tcp 1040 ------- 1 0.0 2.0 5 10
- 0.72332 1 2 tcp 1040 ------- 1 0.0 2.0 5 10
r 0.72728 1 0 ack 40 ------- 1 2.0 0.0 4 9
r 0.74664 1 2 tcp 1040 ------- 1 0.0 2.0 5 10
+ 0.74664 2 1 ack 40 ------- 1 2.0 0.0 5 11
- 0.74664 2 1 ack 40 ------- 1 2.0 0.0 5 11
+ 0.75 0 1 tcp 1040 ------- 1 0.0 2.0 6 12
- 0.75 0 1 tcp 1040 ------- 1 0.0 2.0 6 12
r 0.76196 2 1 ack 40 ------- 1 2.0 0.0 5 11
+ 0.76196 1 0 ack 40 ------- 1 2.0 0.0 5 11
- 0.76196 1 0 ack 40 ------- 1 2.0 0.0 5 11
r 0.77332 0 1 tcp 1040 ------- 1 0.0 2.0 6 12
+ 0.77332 1 2 tcp 1040 ------- 1 0.0 2.0 6 12
- 0.77332 1 2 tcp 1040 ------- 1 0.0 2.0 6 12
r 0.77728 1 0 ack 40 ------- 1 2.0 0.0 5 11
r 0.79664 1 2 tcp 1040 ------- 1 0.0 2.0 6 12
+ 0.79664 2 1 ack 40 ------- 1 2.0 0.0 6 13
- 0.79664 2 1 ack 40 ------- 1 2.0 0.0 6 13
+ 0.8 0 1 tcp 1040 ------- 1 0.0 2.0 7 14
- 0.8 0 1 tcp 1040 ------- 1 0.0 2.0 7 14
r 0.81196 2 1 ack 40 ------- 1 2.0 0.0 6 13
+ 0.81196 1 0 ack 40 ------- 1 2.0 0.0 6 13
- 0.81196 1 0 ack 40 ------- 1 2.0 0.0 6 13
r 0.82332 0 1 tcp 1040 ------- 1 0.0 2.0 7 14
+ 0.82332 1 2 tcp 1040 ------- 1 0.0 2.0 7 14
- 0.82332 1 2 tcp 1040 ------- 1 0.0 2.0 7 14
r 0.82728 1 0 ack 40 ------- 1 2.0 0.0 6 13
r 0.84664 1 2 tcp 1040 ------- 1 0.0 2.0 7 14
+ 0.84664 2 1 ack 40 ------- 1 2.0 0.0 7 15
- 0.84664 2 1 ack 40 ------- 1 2.0 0.0 7 15
+ 0.85 0 1 tcp 1040 ------- 1 0.0 2.0 8 16
- 0.85 0 1 tcp 1040 ------- 1 0.0 2.0 8 16
r 0.86196 2 1 ack 40 ------- 1 2.0 0.0 7 15
+ 0.86196 1 0 ack 40 ------- 1 2.0 0.0 7 15
- 0.86196 1 0 ack 40 ------- 1 2.0 0.0 7 15
r 0.87332 0 1 tcp 1040 ------- 1 0.0 2.0 8 16
+ 0.87332 1 2 tcp 1040 ------- 1 0.0 2.0 8 16
- 0.87332 1 2 tcp 1040 ------- 1 0.0 2.0 8 16
r 0.87728 1 0 ack 40 ------- 1 2.0 0.0 7 15
r 0.89664 1 2 tcp 1040 ------- 1 0.0 2.0 8 16
+ 0.89664 2 1 ack 40 ------- 1 2.0 0.0 8 17
- 0.89664 2 1 ack 40 ------- 1 2.0 0.0 8 17
+ 0.9 0 1 tcp 1040 ------- 1 0.0 2.0 9 18
- 0.9 0 1 tcp 1040 ------- 1 0.0 2.0 9 18
r 0.91196 2 1 ack 40 ------- 1 2.0 0.0 8 17
+ 0.91196 1 0 ack 40 ------- 1 2.0 0.0 8 17
- 0.91196 1 0 ack 40 ------- 1 2.0 0.0 8 17
r 0.92332 0 1 tcp 1040 ------- 1 0.0 2.0 9 18
+ 0.92332 1 2 tcp 1040 ------- 1 0.0 2.0 9 18
- 0.92332 1 2 tcp 1040 ------- 1 0.0 2.0 9 18
r 0.92728 1 0 ack 40 ------- 1 2.0 0.0 8 17
r 0.94664 1 2 tcp 1040 ------- 1 0.0 2.0 9 18
+ 0.94664 2 1 ack 40 ------- 1 2.0 0.0 9 19
- 0.94664 2 1 ack 40 ------- 1 2.0 0.0 9 19
+ 0.95 0 1 tcp 1040 ------- 1 0.0 2.0 10 20
- 0.95 0 1 tcp 1040 ------- 1 0.0 2.0 10 20
r 0.96196 2 1 ack 40 ------- 1 2.0 0.0 9 19
+ 0.96196 1 0 ack 40 ------- 1 2.0 0.0 9 19
- 0.96196 1 0 ack 40 ------- 1 2.0 0.0 9 19
r 0.97332 0 1 tcp 1040 ------- 1 0.0 2.0 10 20
+ 0.97332 1 2 tcp 1040 ------- 1 0.0 2.0 10 20
- 0.97332 1 2 tcp 1040 ------- 1 0.0 2.0 10 20
r 0.97728 1 0 ack 40 ------- 1 2.0 0.0 9 19
r 0.99664 1 2 tcp 1040 ------- 1 0.0 2.0 10 20
+ 0.99664 2 1 ack 40 ------- 1 2.0 0.0 10 21
- 0.99664 2 1 ack 40 ------- 1 2.0 0.0 10 21
+ 1 0 1 tcp 1040 ------- 1 0.0 2.0 11 22
- 1 0 1 tcp 1040 ------- 1 0.0 2.0 11 22
r 1.01196 2 1 ack 40 ------- 1 2.0 0.0 10 21
+ 1.01196 1 0 ack 40 ------- 1 2.0 0.0 10 21
- 1.01196 1 0 ack 40 ------- 1 2.0 0.0 10 21
r 1.02332 0 1 tcp 1040 ------- 1 0.0 2.0 11 22
+ 1.02332 1 2 tcp 1040 ------- 1 0.0 2.0 11 22
- 1.02332 1 2 tcp 1040 ------- 1 0.0 2.0 11 22
r 1.02728 1 0 ack 40 ------- 1 2.0 0.0 10 21
r 1.04664 1 2 tcp 1040 ------- 1 0.0 2.0 11 22
+ 1.04664 2 1 ack 40 ------- 1 2.0 0.0 11 23
- 1.04664 2 1 ack 40 ------- 1 2.0 0.0 11 23
+ 1.05 0 1 tcp 1040 ------- 1 0.0 2.0 12 24
- 1.05 0 1 tcp 1040 ------- 1 0.0 2.0 12 24
r 1.06196 2 1 ack 40 ------- 1 2.0 0.0 11 23
+ 1.06196 1 0 ack 40 ------- 1 2.0 0.0 11 23
- 1.06196 1 0 ack 40 ------- 1 2.0 0.0 11 23
r 1.07332 0 1 tcp 1040 ------- 1 0.0 2.0 12 24
+ 1.07332 1 2 tcp 1040 ------- 1 0.0 2.0 12 24
- 1.07332 1 2 tcp 1040 ------- 1 0.0 2.0 12 24
r 1.07728 1 0 ack 40 ------- 1 2.0 0.0 11 23
r 1.09664 1 2 tcp 1040 ------- 1 0.0 2.0 12 24
+ 1.09664 2 1 ack 40 ------- 1 2.0 0.0 12 25
- 1.09664 2 1 ack 40 ------- 1 2.0 0.0 12 25
+ 1.1 0 1 tcp 1040 ------- 1 0.0 2.0 13 26
- 1.1 0 1 tcp 1040 ------- 1 0.0 2.0 13 26
r 1.11196 2 1 ack 40 ------- 1 2.0 0.0 12 25
+ 1.11196 1 0 ack 40 ------- 1 2.0 0.0 12 25
- 1.11196 1 0 ack 40 ------- 1 2.0 0.0 12 25
r 1.12332 0 1 tcp 1040 ------- 1 0.0 2.0 13 26
+ 1.12332 1 2 tcp 1040 ------- 1 0.0 2.0 13 26
- 1.12332 1 2 tcp 1040 ------- 1 0.0 2.0 13 26
r 1.12728 1 0 ack 40 ------- 1 2.0 0.0 12 25
r 1.14664 1 2 tcp 1040 ------- 1 0.0 2.0 13 26
+ 1.14664 2 1 ack 40 ------- 1 2.0 0.0 13 27
- 1.14664 2 1 ack 40 ------- 1 2.0 0.0 13 27
+ 1.15 0 1 tcp 1040 ------- 1 0.0 2.0 14 28
- 1.15 0 1 tcp 1040 ------- 1 0.0 2.0 14 28
r 1.16196 2 1 ack 40 ------- 1 2.0 0.0 13 27
+ 1.16196 1 0 ack 40 ------- 1 2.0 0.0 13 27
- 1.16196 1 0 ack 40 ------- 1 2.0 0.0 13 27
r 1.17332 0 1 tcp 1040 ------- 1 0.0 2.0 14 28
+ 1.17332 1 2 tcp 1040 ------- 1 0.0 2.0 14 28
- 1.17332 1 2 tcp 1040 ------- 1 0.0 2.0 14 28
r 1.17728 1 0 ack 40 ------- 1 2.0 0.0 13 27
r 1.19664 1 2 tcp 1040 ------- 1 0.0 2.0 14 28
+ 1.19664 2 1 ack 40 ------- 1 2.0 0.0 14 29
- 1.19664 2 1 ack 40 ------- 1 2.0 0.0 14 29
+ 1.2 0 1 tcp 1040 ------- 1 0.0 2.0 15 30
- 1.2 0 1 tcp 1040 ------- 1 0.0 2.0 15 30
r 1.21196 2 1 ack 40 ------- 1 2.0 0.0 14 29
+ 1.21196 1 0 ack 40 ------- 1 2.0 0.0 14 29
- 1.21196 1 0 ack 40 ------- 1 2.0 0.0 14 29
r 1.22332 0 1 tcp 1040 ------- 1 0.0 2.0 15 30
+ 1.22332 1 2 tcp 1040 ------- 1 0.0 2.0 15 30
- 1.22332 1 2 tcp 1040 ------- 1 0.0 2.0 15 30
r 1.22728 1 0 ack 40 ------- 1 2.0 0.0 14 29
r 1.24664 1 2 tcp 1040 ------- 1 0.0 2.0 15 30
+ 1.24664 2 1 ack 40 ------- 1 2.0 0.0 15 31
- 1.24664 2 1 ack 40 ------- 1 2.0 0.0 15 31
+ 1.25 0 1 tcp 1040 ------- 1 0.0 2.0 16 32
- 1.25 0 1 tcp 1040 ------- 1 0.0 2.0 16 32
r 1.26196 2 1 ack 40 ------- 1 2.0 0.0 15 31
+ 1.26196 1 0 ack 40 ------- 1 2.0 0.0 15 31
- 1.26196 1 0 ack 40 ------- 1 2.0 0.0 15 31
r 1.27332 0 1 tcp 1040 ------- 1 0.0 2.0 16 32
+ 1.27332 1 2 tcp 1040 ------- 1 0.0 2.0 16 32
- 1.27332 1 2 tcp 1040 ------- 1 0.0 2.0 16 32
r 1.27728 1 0 ack 40 ------- 1 2.0 0.0 15 31
r 1.29664 1 2 tcp 1040 ------- 1 0.0 2.0 16 32
+ 1.29664 2 1 ack 40 ------- 1 2.0 0.0 16 33
- 1.29664 2 1 ack 40 ------- 1 2.0 0.0 16 33
+ 1.3 0 1 tcp 1040 ------- 1 0.0 2.0 17 34
- 1.3 0 1 tcp 1040 ------- 1 0.0 2.0 17 34
r 1.31196 2 1 ack 40 ------- 1 2.0 0.0 16 33
+ 1.31196 1 0 ack 40 ------- 1 2.0 0.0 16 33
- 1.31196 1 0 ack 40 ------- 1 2.0 0.0 16 33
r 1.32332 0 1 tcp 1040 ------- 1 0.0 2.0 17 34
+ 1.32332 1 2 tcp 1040 ------- 1 0.0 2.0 17 34
- 1.32332 1 2 tcp 1040 ------- 1 0.0 2.0 17 34
r 1.32728 1 0 ack 40 ------- 1 2.0 0.0 16 33
r 1.34664 1 2 tcp 1040 ------- 1 0.0 2.0 17 34
+ 1.34664 2 1 ack 40 ------- 1 2.0 0.0 17 35
- 1.34664 2 1 ack 40 ------- 1 2.0 0.0 17 35
+ 1.35 0 1 tcp 1040 ------- 1 0.0 2.0 18 36
- 1.35 0 1 tcp 1040 ------- 1 0.0 2.0 18 36
r 1.36196 2 1 ack 40 ------- 1 2.0 0.0 17 35
+ 1.36196 1 0 ack 40 ------- 1 2.0 0.0 17 35
- 1.36196 1 0 ack 40 ------- 1 2.0 0.0 17 35
r 1.37332 0 1 tcp 1040 ------- 1 0.0 2.0 18 36
+ 1.37332 1 2 tcp 1040 ------- 1 0.0 2.0 18 36
- 1.37332 1 2 tcp 1040 ------- 1 0.0 2.0 18 36
r 1.37728 1 0 ack 40 ------- 1 2.0 0.0 17 35
r 1.39664 1 2 tcp 1040 ------- 1 0.0 2.0 18 36
+ 1.39664 2 1 ack 40 ------- 1 2.0 0.0 18 37
- 1.39664 2 1 ack 40 ------- 1 2.0 0.0 18 37
+ 1.4 0 1 tcp 1040 ------- 1 0.0 2.0 19 38
- 1.4 0 1 tcp 1040 ------- 1 0.0 2.0 19 38
r 1.41196 2 1 ack 40 ------- 1 2.0 0.0 18 37
+ 1.41196 1 0 ack 40 ------- 1 2.0 0.0 18 37
- 1.41196 1 0 ack 40 ------- 1 2.0 0.0 18 37
r 1.42332 0 1 tcp 1040 ------- 1 0.0 2.0 19 38
+ 1.42332 1 2 tcp 1040 ------- 1 0.0 2.0 19 38
- 1.42332 1 2 tcp 1040 ------- 1 0.0 2.0 19 38
r 1.42728 1 0 ack 40 ------- 1 2.0 0.0 18 37
r 1.44664 1 2 tcp 1040 ------- 1 0.0 2.0 19 38
+ 1.44664 2 1 ack 40 ------- 1 2.0 0.0 19 39
- 1.44664 2 1 ack 40 ------- 1 2.0 0.0 19 39
+ 1.45 0 1 tcp 1040 ------- 1 0.0 2.0 20 40
- 1.45 0 1 tcp 1040 ------- 1 0.0 2.0 20 40
r 1.46196 2 1 ack 40 ------- 1 2.0 0.0 19 39
+ 1.46196 1 0 ack 40 ------- 1 2.0 0.0 19 39
- 1.46196 1 0 ack 40 ------- 1 2.0 0.0 19 39
r 1.47332 0 1 tcp 1040 ------- 1 0.0 2.0 20 40
+ 1.47332 1 2 tcp 1040 ------- 1 0.0 2.0 20 40
- 1.47332 1 2 tcp 1040 ------- 1 0.0 2.0 20 40
r 1.47728 1 0 ack 40 ------- 1 2.0 0.0 19 39
r 1.49664 1 2 tcp 1040 ------- 1 0.0 2.0 20 40
+ 1.49664 2 1 ack 40 ------- 1 2.0 0.0 20 41
- 1.49664 2 1 ack 40 ------- 1 2.0 0.0 20 41
+ 1.5 0 1 tcp 1040 ------- 1 0.0 2.0 21 42
- 1.5 0 1 tcp 1040 ------- 1 0.0 2.0 21 42
r 1.51196 2 1 ack 40 ------- 1 2.0 0.0 20 41
+ 1.51196 1 0 ack 40 ------- 1 2.0 0.0 20 41
- 1.51196 1 0 ack 40 ------- 1 2.0 0.0 20 41
r 1.52332 0 1 tcp 1040 ------- 1 0.0 2.0 21 42
+ 1.52332 1 2 tcp 1040 ------- 1 0.0 2.0 21 42
- 1.52332 1 2 tcp 1040 ------- 1 0.0 2.0 21 42
r 1.52728 1 0 ack 40 ------- 1 2.0 0.0 20 41
r 1.54664 1 2 tcp 1040 ------- 1 0.0 2.0 21 42
+ 1.54664 2 1 ack 40 ------- 1 2.0 0.0 21 43
- 1.54664 2 1 ack 40 ------- 1 2.0 0.0 21 43
+ 1.55 0 1 tcp 1040 ------- 1 0.0 2.0 22 44
- 1.55 0 1 tcp 1040 ------- 1 0.0 2.0 22 44
r 1.56196 2 1 ack 40 ------- 1 2.0 0.0 21 43
+ 1.56196 1 0 ack 40 ------- 1 2.0 0.0 21 43
- 1.56196 1 0 ack 40 ------- 1 2.0 0.0 21 43
r 1.57332 0 1 tcp 1040 ------- 1 0.0 2.0 22 44
+ 1.57332 1 2 tcp 1040 ------- 1 0.0 2.0 22 44
- 1.57332 1 2 tcp 1040 ------- 1 0.0 2.0 22 44
r 1.57728 1 0 ack 40 ------- 1 2.0 0.0 21 43
r 1.59664 1 2 tcp 1040 ------- 1 0.0 2.0 22 44
+ 1.59664 2 1 ack 40 ------- 1 2.0 0.0 22 45
- 1.59664 2 1 ack 40 ------- 1 2.0 0.0 22 45
+ 1.6 0 1 tcp 1040 ------- 1 0.0 2.0 23 46
- 1.6 0 1 tcp 1040 ------- 1 0.0 2.0 23 46
r 1.61196 2 1 ack 40 ------- 1 2.0 0.0 22 45
+ 1.61196 1 0 ack 40 ------- 1 2.0 0.0 22 45
- 1.61196 1 0 ack 40 ------- 1 2.0 0.0 22 45
r 1.62332 0 1 tcp 1040 ------- 1 0.0 2.0 23 46
+ 1.62332 1 2 tcp 1040 ------- 1 0.0 2.0 23 46
- 1.62332 1 2 tcp 1040 ------- 1 0.0 2.0 23 46
r 1.62728 1 0 ack 40 ------- 1 2.0 0.0 22 45
r 1.64664 1 2 tcp 1040 ------- 1 0.0 2.0 23 46
+ 1.64664 2 1 ack 40 ------- 1 2.0 0.0 23 47
- 1.64664 2 1 ack 40 ------- 1 2.0 0.0 23 47
+ 1.65 0 1 tcp 1040 ------- 1 0.0 2.0 24 48
- 1.65 0 1 tcp 1040 ------- 1 0.0 2.0 24 48
r 1.66196 2 1 ack 40 ------- 1 2.0 0.0 23 47
+ 1.66196 1 0 ack 40 ------- 1 2.0 0.0 23 47
- 1.66196 1 0 ack 40 ------- 1 2.0 0.0 23 47
r 1.67332 0 1 tcp 1040 ------- 1 0.0 2.0 24 48
+ 1.67332 1 2 tcp 1040 ------- 1 0.0 2.0 24 48
- 1.67332 1 2 tcp 1040 ------- 1 0.0 2.0 24 48
r 1.67728 1 0 ack 40 ------- 1 2.0 0.0 23 47
r 1.69664 1 2 tcp 1040 ------- 1 0.0 2.0 24 48
+ 1.69664 2 1 ack 40 ------- 1 2.0 0.0 24 49
- 1.69664 2 1 ack 40 ------- 1 2.0 0.0 24 49
+ 1.7 0 1 tcp 1040 ------- 1 0.0 2.0 25 50
- 1.7 0 1 tcp 1040 ------- 1 0.0 2.0 25 50
r 1.71196 2 1 ack 40 ------- 1 2.0 0.0 24 49
+ 1.71196 1 0 ack 40 ------- 1 2.0 0.0 24 49
- 1.71196 1 0 ack 40 ------- 1 2.0 0.0 24 49
r 1.72332 0 1 tcp 1040 ------- 1 0.0 2.0 25 50
+ 1.72332 1 2 tcp 1040 ------- 1 0.0 2.0 25 50
- 1.72332 1 2 tcp 1040 ------- 1 0.0 2.0 25 50
r 1.72728 1 0 ack 40 ------- 1 2.0 0.0 24 49
r 1.74664 1 2 tcp 1040 ------- 1 0.0 2.0 25 50
+ 1.74664 2 1 ack 40 ------- 1 2.0 0.0 25 51
- 1.74664 2 1 ack 40 ------- 1 2.0 0.0 25 51
+ 1.75 0 1 tcp 1040 ------- 1 0.0 2.0 26 52
- 1.75 0 1 tcp 1040 ------- 1 0.0 2.0 26 52
r 1.76196 2 1 ack 40 ------- 1 2.0 0.0 25 51
+ 1.76196 1 0 ack 40 ------- 1 2.0 0.0 25 51
- 1.76196 1 0 ack 40 ------- 1 2.0 0.0 25 51
r 1.77332 0 1 tcp 1040 ------- 1 0.0 2.0 26 52
+ 1.77332 1 2 tcp 1040 ------- 1 0.0 2.0 26 52
- 1.77332 1 2 tcp 1040 ------- 1 0.0 2.0 26 52
r 1.77728 1 0 ack 40 ------- 1 2.0 0.0 25 51
r 1.79664 1 2 tcp 1040 ------- 1 0.0 2.0 26 52
+ 1.79664 2 1 ack 40 ------- 1 2.0 0.0 26 53
- 1.79664 2 1 ack 40 ------- 1 2.0 0.0 26 53
+ 1.8 0 1 tcp 1040 ------- 1 0.0 2.0 27 54
- 1.8 0 1 tcp 1040 ------- 1 0.0 2.0 27 54
r 1.81196 2 1 ack 40 ------- 1 2.0 0.0 26 53
+ 1.81196 1 0 ack 40 ------- 1 2.0 0.0 26 53
- 1.81196 1 0 ack 40 ------- 1 2.0 0.0 26 53
r 1.82332 0 1 tcp 1040 ------- 1 0.0 2.0 27 54
+ 1.82332 1 2 tcp 1040 ------- 1 0.0 2.0 27 54
- 1.82332 1 2 tcp 1040 ------- 1 0.0 2.0 27 54
r 1.82728 1 0 ack 40 ------- 1 2.0 0.0 26 53
r 1.84664 1 2 tcp 1040 ------- 1 0.0 2.0 27 54
+ 1.84664 2 1 ack 40 ------- 1 2.0 0.0 27 55
- 1.84664 2 1 ack 40 ------- 1 2.0 0.0 27 55
+ 1.85 0 1 tcp 1040 ------- 1 0.0 2.0 28 56
- 1.85 0 1 tcp 1040 ------- 1 0.0 2.0 28 56
r 1.86196 2 1 ack 40 ------- 1 2.0 0.0 27 55
+ 1.86196 1 0 ack 40 ------- 1 2.0 0.0 27 55
- 1.86196 1 0 ack 40 ------- 1 2.0 0.0 27 55
r 1.87332 0 1 tcp 1040 ------- 1 0.0 2.0 28 56
+ 1.87332 1 2 tcp 1040 ------- 1 0.0 2.0 28 56
- 1.87332 1 2 tcp 1040 ------- 1 0.0 2.0 28 56
r 1.87728 1 0 ack 40 ------- 1 2.0 0.0 27 55
r 1.89664 1 2 tcp 1040 ------- 1 0.0 2.0 28 56
+ 1.89664 2 1 ack 40 ------- 1 2.0 0.0 28 57
- 1.89664 2 1 ack 40 ------- 1 2.0 0.0 28 57
+ 1.9 0 1 tcp 1040 ------- 1 0.0 2.0 29 58
- 1.9 0 1 tcp 1040 ------- 1 0.0 2.0 29 58
r 1.91196 2 1 ack 40 ------- 1 2.0 0.0 28 57
+ 1.91196 1 0 ack 40 ------- 1 2.0 0.0 28 57
- 1.91196 1 0 ack 40 ------- 1 2.0 0.0 28 57
r 1.92332 0 1 tcp 1040 ------- 1 0.0 2.0 29 58
+ 1.92332 1 2 tcp 1040 ------- 1 0.0 2.0 29 58
- 1.92332 1 2 tcp 1040 ------- 1 0.0 2.0 29 58
r 1.92728 1 0 ack 40 ------- 1 2.0 0.0 28 57
r 1.94664 1 2 tcp 1040 ------- 1 0.0 2.0 29 58
+ 1.94664 2 1 ack 40 ------- 1 2.0 0.0 29 59
- 1.94664 2 1 ack 40 ------- 1 2.0 0.0 29 59
+ 1.95 0 1 tcp 1040 ------- 1 0.0 2.0 30 60
- 1.95 0 1 tcp 1040 ------- 1 0.0 2.0 30 60
r 1.96196 2 1 ack 40 ------- 1 2.0 0.0 29 59
+ 1.96196 1 0 ack 40 ------- 1 2.0 0.0 29 59
- 1.96196 1 0 ack 40 ------- 1 2.0 0.0 29 59
r 1.97332 0 1 tcp 1040 ------- 1 0.0 2.0 30 60
+ 1.97332 1 2 tcp 1040 ------- 1 0.0 2.0 30 60
- 1.97332 1 2 tcp 1040 ------- 1 0.0 2.0 30 60
r 1.97728 1 0 ack 40 ------- 1 2.0 0.0 29 59
r 1.99664 1 2 tcp 1040 ------- 1 0.0 2.0 30 60
+ 1.99664 2 1 ack 40 ------- 1 2.0 0.0 30 61
- 1.99664 2 1 ack 40 ------- 1 2.0 0.0 30 61
+ 2 0 1 tcp 1040 ------- 1 0.0 2.0 31 62
- 2 0 1 tcp 1040 ------- 1 0.0 2.0 31 62
r 2.01196 2 1 ack 40 ------- 1 2.0 0.0 30 61
+ 2.01196 1 0 ack 40 ------- 1 2.0 0.0 30 61
- 2.01196 1 0 ack 40 ------- 1 2.0 0.0 30 61
r 2.02332 0 1 tcp 1040 ------- 1 0.0 2.0 31 62
+ 2.02332 1 2 tcp 1040 ------- 1 0.0 2.0 31 62
- 2.02332 1 2 tcp 1040 ------- 1 0.0 2.0 31 62
r 2.02728 1 0 ack 40 ------- 1 2.0 0.0 30 61
r 2.04664 1 2 tcp 1040 ------- 1 0.0 2.0 31 62
+ 2.04664 2 1 ack 40 ------- 1 2.0 0.0 31 63
- 2.04664 2 1 ack 40 ------- 1 2.0 0.0 31 63
+ 2.05 0 1 tcp 1040 ------- 1 0.0 2.0 32 64
- 2.05 0 1 tcp 1040 ------- 1 0.0 2.0 32 64
r 2.06196 2 1 ack 40 ------- 1 2.0 0.0 31 63
+ 2.06196 1 0 ack 40 ------- 1 2.0 0.0 31 63
- 2.06196 1 0 ack 40 ------- 1 2.0 0.0 31 63
r 2.07332 0 1 tcp 1040 ------- 1 0.0 2.0 32 64
+ 2.07332 1 2 tcp 1040 ------- 1 0.0 2.0 32 64
- 2.07332 1 2 tcp 1040 ------- 1 0.0 2.0 32 64
r 2.07728 1 0 ack 40 ------- 1 2.0 0.0 31 63
r 2.09664 1 2 tcp 1040 ------- 1 0.0 2.0 32 64
+ 2.09664 2 1 ack 40 ------- 1 2.0 0.0 32 65
- 2.09664 2 1 ack 40 ------- 1 2.0 0.0 32 65
+ 2.1 0 1 tcp 1040 ------- 1 0.0 2.0 33 66
- 2.1 0 1 tcp 1040 ------- 1 0.0 2.0 33 66
r 2.11196 2 1 ack 40 ------- 1 2.0 0.0 32 65
+ 2.11196 1 0 ack 40 ------- 1 2.0 0.0 32 65
- 2.11196 1 0 ack 40 ------- 1 2.0 0.0 32 65
r 2.12332 0 1 tcp 1040 ------- 1 0.0 2.0 33 66
+ 2.12332 1 2 tcp 1040 ------- 1 0.0 2.0 33 66
- 2.12332 1 2 tcp 1040 ------- 1 0.0 2.0 33 66
r 2.12728 1 0 ack 40 ------- 1 2.0 0.0 32 65
r 2.14664 1 2 tcp 1040 ------- 1 0.0 2.0 33 66
+ 2.14664 2 1 ack 40 ------- 1 2.0 0.0 33 67
- 2.14664 2 1 ack 40 ------- 1 2.0 0.0 33 67
+ 2.15 0 1 tcp 1040 ------- 1 0.0 2.0 34 68
- 2.15 0 1 tcp 1040 ------- 1 0.0 2.0 34 68
r 2.16196 2 1 ack 40 ------- 1 2.0 0.0 33 67
+ 2.16196 1 0 ack 40 ------- 1 2.0 0.0 33 67
- 2.16196 1 0 ack 40 ------- 1 2.0 0.0 33 67
r 2.17332 0 1 tcp 1040 ------- 1 0.0 2.0 34 68
+ 2.17332 1 2 tcp 1040 ------- 1 0.0 2.0 34 68
- 2.17332 1 2 tcp 1040 ------- 1 0.0 2.0 34 68
r 2.17728 1 0 ack 40 ------- 1 2.0 0.0 33 67
r 2.19664 1 2 tcp 1040 ------- 1 0.0 2.0 34 68
+ 2.19664 2 1 ack 40 ------- 1 2.0 0.0 34 69
- 2.19664 2 1 ack 40 ------- 1 2.0 0.0 34 69
+ 2.2 0 1 tcp 1040 ------- 1 0.0 2.0 35 70
- 2.2 0 1 tcp 1040 ------- 1 0.0 2.0 35 70
r 2.21196 2 1 ack 40 ------- 1 2.0 0.0 34 69
+ 2.21196 1 0 ack 40 ------- 1 2.0 0.0 34 69
- 2.21196 1 0 ack 40 ------- 1 2.0 0.0 34 69
r 2.22332 0 1 tcp 1040 ------- 1 0.0 2.0 35 70
+ 2.22332 1 2 tcp 1040 ------- 1 0.0 2.0 35 70
- 2.22332 1 2 tcp 1040 ------- 1 0.0 2.0 35 70
r 2.22728 1 0 ack 40 ------- 1 2.0 0.0 34 69
r 2.24664 1 2 tcp 1040 ------- 1 0.0 2.0 35 70
+ 2.24664 2 1 ack 40 ------- 1 2.0 0.0 35 71
- 2.24664 2 1 ack 40 ------- 1 2.0 0.0 35 71
+ 2.25 0 1 tcp 1040 ------- 1 0.0 2.0 36 72
- 2.25 0 1 tcp 1040 ------- 1 0.0 2.0 36 72
r 2.26196 2 1 ack 40 ------- 1 2.0 0.0 35 71
+ 2.26196 1 0 ack 40 ------- 1 2.0 0.0 35 71
- 2.26196 1 0 ack 40 ------- 1 2.0 0.0 35 71
r 2.27332 0 1 tcp 1040 ------- 1 0.0 2.0 36 72
+ 2.27332 1 2 tcp 1040 ------- 1 0.0 2.0 36 72
- 2.27332 1 2 tcp 1040 ------- 1 0.0 2.0 36 72
r 2.27728 1 0 ack 40 ------- 1 2.0 0.0 35 71
r 2.29664 1 2 tcp 1040 ------- 1 0.0 2.0 36 72
+ 2.29664 2 1 ack 40 ------- 1 2.0 0.0 36 73
- 2.29664 2 1 ack 40 ------- 1 2.0 0.0 36 73
+ 2.3 0 1 tcp 1040 ------- 1 0.0 2.0 37 74
- 2.3 0 1 tcp 1040 ------- 1 0.0 2.0 37 74
r 2.31196 2 1 ack 40 ------- 1 2.0 0.0 36 73
+ 2.31196 1 0 ack 40 ------- 1 2.0 0.0 36 73
- 2.31196 1 0 ack 40 ------- 1 2.0 0.0 36 73
r 2.32332 0 1 tcp 1040 ------- 1 0.0 2.0 37 74
+ 2.32332 1 2 tcp 1040 ------- 1 0.0 2.0 37 74
- 2.32332 1 2 tcp 1040 ------- 1 0.0 2.0 37 74
r 2.32728 1 0 ack 40 ------- 1 2.0 0.0 36 73
r 2.34664 1 2 tcp 1040 ------- 1 0.0 2.0 37 74
+ 2.34664 2 1 ack 40 ------- 1 2.0 0.0 37 75
- 2.34664 2 1 ack 40 ------- 1 2.0 0.0 37 75
+ 2.35 0 1 tcp 1040 ------- 1 0.0 2.0 38 76
- 2.35 0 1 tcp 1040 ------- 1 0.0 2.0 38 76
r 2.36196 2 1 ack 40 ------- 1 2.0 0.0 37 75
+ 2.36196 1 0 ack 40 ------- 1 2.0 0.0 37 75
- 2.36196 1 0 ack 40 ------- 1 2.0 0.0 37 75
r 2.37332 0 1 tcp 1040 ------- 1 0.0 2.0 38 76
+ 2.37332 1 2 tcp 1040 ------- 1 0.0 2.0 38 76
- 2.37332 1 2 tcp 1040 ------- 1 0.0 2.0 38 76
r 2.37728 1 0 ack 40 ------- 1 2.0 0.0 37 75
r 2.39664 1 2 tcp 1040 ------- 1 0.0 2.0 38 76
+ 2.39664 2 1 ack 40 ------- 1 2.0 0.0 38 77
- 2.39664 2 1 ack 40 ------- 1 2.0 0.0 38 77
+ 2.4 0 1 tcp 1040 ------- 1 0.0 2.0 39 78
- 2.4 0 1 tcp 1040 ------- 1 0.0 2.0 39 78
r 2.41196 2 1 ack 40 ------- 1 2.0 0.0 38 77
+ 2.41196 1 0 ack 40 ------- 1 2.0 0.0 38 77
- 2.41196 1 0 ack 40 ------- 1 2.0 0.0 38 77
r 2.42332 0 1 tcp 1040 ------- 1 0.0 2.0 39 78
+ 2.42332 1 2 tcp 1040 ------- 1 0.0 2.0 39 78
- 2.42332 1 2 tcp 1040 ------- 1 0.0 2.0 39 78
r 2.42728 1 0 ack 40 ------- 1 2.0 0.0 38 77
r 2.44664 1 2 tcp 1040 ------- 1 0.0 2.0 39 78
+ 2.44664 2 1 ack 40 ------- 1 2.0 0.0 39 79
- 2.44664 2 1 ack 40 ------- 1 2.0 0.0 39 79
+ 2.45 0 1 tcp 1040 ------- 1 0.0 2.0 40 80
- 2.45 0 1 tcp 1040 ------- 1 0.0 2.0 40 80
r 2.46196 2 1 ack 40 ------- 1 2.0 0.0 39 79
+ 2.46196 1 0 ack 40 ------- 1 2.0 0.0 39 79
- 2.46196 1 0 ack 40 ------- 1 2.0 0.0 39 79
r 2.47332 0 1 tcp 1040 ------- 1 0.0 2.0 40 80
+ 2.47332 1 2 tcp 1040 ------- 1 0.0 2.0 40 80
- 2.47332 1 2 tcp 1040 ------- 1 0.0 2.0 40 80
r 2.47728 1 0 ack 40 ------- 1 2.0 0.0 39 79
r 2.49664 1 2 tcp 1040 ------- 1 0.0 2.0 40 80
+ 2.49664 2 1 ack 40 ------- 1 2.0 0.0 40 81
- 2.49664 2 1 ack 40 ------- 1 2.0 0.0 40 81
+ 2.5 0 1 tcp 1040 ------- 1 0.0 2.0 41 82
- 2.5 0 1 tcp 1040 ------- 1 0.0 2.0 41 82
r 2.51196 2 1 ack 40 ------- 1 2.0 0.0 40 81
+ 2.51196 1 0 ack 40 ------- 1 2.0 0.0 40 81
- 2.51196 1 0 ack 40 ------- 1 2.0 0.0 40 81
r 2.52332 0 1 tcp 1040 ------- 1 0.0 2.0 41 82
+ 2.52332 1 2 tcp 1040 ------- 1 0.0 2.0 41 82
- 2.52332 1 2 tcp 1040 ------- 1 0.0 2.0 41 82
r 2.52728 1 0 ack 40 ------- 1 2.0 0.0 40 81
r 2.54664 1 2 tcp 1040 ------- 1 0.0 2.0 41 82
+ 2.54664 2 1 ack 40 ------- 1 2.0 0.0 41 83
- 2.54664 2 1 ack 40 ------- 1 2.0 0.0 41 83
+ 2.55 0 1 tcp 1040 ------- 1 0.0 2.0 42 84
- 2.55 0 1 tcp 1040 ------- 1 0.0 2.0 42 84
r 2.56196 2 1 ack 40 ------- 1 2.0 0.0 41 83
+ 2.56196 1 0 ack 40 ------- 1 2.0 0.0 41 83
- 2.56196 1 0 ack 40 ------- 1 2.0 0.0 41 83
r 2.57332 0 1 tcp 1040 ------- 1 0.0 2.0 42 84
+ 2.57332 1 2 tcp 1040 ------- 1 0.0 2.0 42 84
- 2.57332 1 2 tcp 1040 ------- 1 0.0 2.0 42 84
r 2.57728 1 0 ack 40 ------- 1 2.0 0.0 41 83
r 2.59664 1 2 tcp 1040 ------- 1 0.0 2.0 42 84
+ 2.59664 2 1 ack 40 ------- 1 2.0 0.0 42 85
- 2.59664 2 1 ack 40 ------- 1 2.0 0.0 42 85
+ 2.6 0 1 tcp 1040 ------- 1 0.0 2.0 43 86
- 2.6 0 1 tcp 1040 ------- 1 0.0 2.0 43 86
r 2.61196 2 1 ack 40 ------- 1 2.0 0.0 42 85
+ 2.61196 1 0 ack 40 ------- 1 2.0 0.0 42 85
- 2.61196 1 0 ack 40 ------- 1 2.0 0.0 42 85
r 2.62332 0 1 tcp 1040 ------- 1 0.0 2.0 43 86
+ 2.62332 1 2 tcp 1040 ------- 1 0.0 2.0 43 86
- 2.62332 1 2 tcp 1040 ------- 1 0.0 2.0 43 86
r 2.62728 1 0 ack 40 ------- 1 2.0 0.0 42 85
r 2.64664 1 2 tcp 1040 ------- 1 0.0 2.0 43 86
+ 2.64664 2 1 ack 40 ------- 1 2.0 0.0 43 87
- 2.64664 2 1 ack 40 ------- 1 2.0 0.0 43 87
+ 2.65 0 1 tcp 1040 ------- 1 0.0 2.0 44 88
- 2.65 0 1 tcp 1040 ------- 1 0.0 2.0 44 88
r 2.66196 2 1 ack 40 ------- 1 2.0 0.0 43 87
+ 2.66196 1 0 ack 40 ------- 1 2.0 0.0 43 87
- 2.66196 1 0 ack 40 ------- 1 2.0 0.0 43 87
r 2.67332 0 1 tcp 1040 ------- 1 0.0 2.0 44 88
+ 2.67332 1 2 tcp 1040 ------- 1 0.0 2.0 44 88
- 2.67332 1 2 tcp 1040 ------- 1 0.0 2.0 44 88
r 2.67728 1 0 ack 40 ------- 1 2.0 0.0 43 87
r 2.69664 1 2 tcp 1040 ------- 1 0.0 2.0 44 88
+ 2.69664 2 1 ack 40 ------- 1 2.0 0.0 44 89
- 2.69664 2 1 ack 40 ------- 1 2.0 0.0 44 89
+ 2.7 0 1 tcp 1040 ------- 1 0.0 2.0 45 90
- 2.7 0 1 tcp 1040 ------- 1 0.0 2.0 45 90
r 2.71196 2 1 ack 40 ------- 1 2.0 0.0 44 89
+ 2.71196 1 0 ack 40 ------- 1 2.0 0.0 44 89
- 2.71196 1 0 ack 40 ------- 1 2.0 0.0 44 89
r 2.72332 0 1 tcp 1040 ------- 1 0.0 2.0 45 90
+ 2.72332 1 2 tcp 1040 ------- 1 0.0 2.0 45 90
- 2.72332 1 2 tcp 1040 ------- 1 0.0 2.0 45 90
r 2.72728 1 0 ack 40 ------- 1 2.0 0.0 44 89
r 2.74664 1 2 tcp 1040 ------- 1 0.0 2.0 45 90
+ 2.74664 2 1 ack 40 ------- 1 2.0 0.0 45 91
- 2.74664 2 1 ack 40 ------- 1 2.0 0.0 45 91
+ 2.75 0 1 tcp 1040 ------- 1 0.0 2.0 46 92
- 2.75 0 1 tcp 1040 ------- 1 0.0 2.0 46 92
r 2.76196 2 1 ack 40 ------- 1 2.0 0.0 45 91
+ 2.76196 1 0 ack 40 ------- 1 2.0 0.0 45 91
- 2.76196 1 0 ack 40 ------- 1 2.0 0.0 45 91
r 2.77332 0 1 tcp 1040 ------- 1 0.0 2.0 46 92
+ 2.77332 1 2 tcp 1040 ------- 1 0.0 2.0 46 92
- 2.77332 1 2 tcp 1040 ------- 1 0.0 2.0 46 92
r 2.77728 1 0 ack 40 ------- 1 2.0 0.0 45 91
r 2.79664 1 2 tcp 1040 ------- 1 0.0 2.0 46 92
+ 2.79664 2 1 ack 40 ------- 1 2.0 0.0 46 93
- 2.79664 2 1 ack 40 ------- 1 2.0 0.0 46 93
+ 2.8 0 1 tcp 1040 ------- 1 0.0 2.0 47 94
- 2.8 0 1 tcp 1040 ------- 1 0.0 2.0 47 94
r 2.81196 2 1 ack 40 ------- 1 2.0 0.0 46 93
+ 2.81196 1 0 ack 40 ------- 1 2.0 0.0 46 93
- 2.81196 1 0 ack 40 ------- 1 2.0 0.0 46 93
r 2.82332 0 1 tcp 1040 ------- 1 0.0 2.0 47 94
+ 2.82332 1 2 tcp 1040 ------- 1 0.0 2.0 47 94
- 2.82332 1 2 tcp 1040 ------- 1 0.0 2.0 47 94
r 2.82728 1 0 ack 40 ------- 1 2.0 0.0 46 93
r 2.84664 1 2 tcp 1040 ------- 1 0.0 2.0 47 94
+ 2.84664 2 1 ack 40 ------- 1 2.0 0.0 47 95
- 2.84664 2 1 ack 40 ------- 1 2.0 0.0 47 95
+ 2.85 0 1 tcp 1040 ------- 1 0.0 2.0 48 96
- 2.85 0 1 tcp 1040 ------- 1 0.0 2.0 48 96
r 2.86196 2 1 ack 40 ------- 1 2.0 0.0 47 95
+ 2.86196 1 0 ack 40 ------- 1 2.0 0.0 47 95
- 2.86196 1 0 ack 40 ------- 1 2.0 0.0 47 95
r 2.87332 0 1 tcp 1040 ------- 1 0.0 2.0 48 96
+ 2.87332 1 2 tcp 1040 ------- 1 0.0 2.0 48 96
- 2.87332 1 2 tcp 1040 ------- 1 0.0 2.0 48 96
r 2.87728 1 0 ack 40 ------- 1 2.0 0.0 47 95
r 2.89664 1 2 tcp 1040 ------- 1 0.0 2.0 48 96
+ 2.89664 2 1 ack 40 ------- 1 2.0 0.0 48 97
- 2.89664 2 1 ack 40 ------- 1 2.0 0.0 48 97
+ 2.9 0 1 tcp 1040 ------- 1 0.0 2.0 49 98
- 2.9 0 1 tcp 1040 ------- 1 0.0 2.0 49 98
r 2.91196 2 1 ack 40 ------- 1 2.0 0.0 48 97
+ 2.91196 1 0 ack 40 ------- 1 2.0 0.0 48 97
- 2.91196 1 0 ack 40 ------- 1 2.0 0.0 48 97
r 2.92332 0 1 tcp 1040 ------- 1 0.0 2.0 49 98
+ 2.92332 1 2 tcp 1040 ------- 1 0.0 2.0 49 98
- 2.92332 1 2 tcp 1040 ------- 1 0.0 2.0 49 98
r 2.92728 1 0 ack 40 ------- 1 2.0 0.0 48 97
r 2.94664 1 2 tcp 1040 ------- 1 0.0 2.0 49 98
+ 2.94664 2 1 ack 40 ------- 1 2.0 0.0 49 99
- 2.94664 2 1 ack 40 ------- 1 2.0 0.0 49 99
+ 2.95 0 1 tcp 1040 ------- 1 0.0 2.0 50 100
- 2.95 0 1 tcp 1040 ------- 1 0.0 2.0 50 100
r 2.96196 2 1 ack 40 ------- 1 2.0 0.0 49 99
+ 2.96196 1 0 ack 40 ------- 1 2.0 0.0 49 99
- 2.96196 1 0 ack 40 ------- 1 2.0 0.0 49 99
r 2.97332 0 1 tcp 1040 ------- 1 0.0 2.0 50 100
+ 2.97332 1 2 tcp 1040 ------- 1 0.0 2.0 50 100
- 2.97332 1 2 tcp 1040 ------- 1 0.0 2.0 50 100
r 2.97728 1 0 ack 40 ------- 1 2.0 0.0 49 99
r 2.99664 1 2 tcp 1040 ------- 1 0.0 2.0 50 100
+ 2.99664 2 1 ack 40 ------- 1 2.0 0.0 50 101
- 2.99664 2 1 ack 40 ------- 1 2.0 0.0 50 101
+ 3 0 1 tcp 1040 ------- 1 0.0 2.0 51 102
- 3 0 1 tcp 1040 ------- 1 0.0 2.0 51 102
r 3.01196 2 1 ack 40 ------- 1 2.0 0.0 50 101
+ 3.01196 1 0 ack 40 ------- 1 2.0 0.0 50 101
- 3.01196 1 0 ack 40 ------- 1 2.0 0.0 50 101
r 3.02332 0 1 tcp 1040 ------- 1 0.0 2.0 51 102
+ 3.02332 1 2 tcp 1040 ------- 1 0.0 2.0 51 102
- 3.02332 1 2 tcp 1040 ------- 1 0.0 2.0 51 102
r 3.02728 1 0 ack 40 ------- 1 2.0 0.0 50 101
r 3.04664 1 2 tcp 1040 ------- 1 0.0 2.0 51 102
+ 3.04664 2 1 ack 40 ------- 1 2.0 0.0 51 103
- 3.04664 2 1 ack 40 ------- 1 2.0 0.0 51 103
+ 3.05 0 1 tcp 1040 ------- 1 0.0 2.0 52 104
- 3.05 0 1 tcp 1040 ------- 1 0.0 2.0 52 104
r 3.06196 2 1 ack 40 ------- 1 2.0 0.0 51 103
+ 3.06196 1 0 ack 40 ------- 1 2.0 0.0 51 103
- 3.06196 1 0 ack 40 ------- 1 2.0 0.0 51 103
r 3.07332 0 1 tcp 1040 ------- 1 0.0 2.0 52 104
+ 3.07332 1 2 tcp 1040 ------- 1 0.0 2.0 52 104
- 3.07332 1 2 tcp 1040 ------- 1 0.0 2.0 52 104
r 3.07728 1 0 ack 40 ------- 1 2.0 0.0 51 103
r 3.09664 1 2 tcp 1040 ------- 1 0.0 2.0 52 104
+ 3.09664 2 1 ack 40 ------- 1 2.0 0.0 52 105
- 3.09664 2 1 ack 40 ------- 1 2.0 0.0 52 105
+ 3.1 0 1 tcp 1040 ------- 1 0.0 2.0 53 106
- 3.1 0 1 tcp 1040 ------- 1 0.0 2.0 53 106
r 3.11196 2 1 ack 40 ------- 1 2.0 0.0 52 105
+ 3.11196 1 0 ack 40 ------- 1 2.0 0.0 52 105
- 3.11196 1 0 ack 40 ------- 1 2.0 0.0 52 105
r 3.12332 0 1 tcp 1040 ------- 1 0.0 2.0 53 106
+ 3.12332 1 2 tcp 1040 ------- 1 0.0 2.0 53 106
- 3.12332 1 2 tcp 1040 ------- 1 0.0 2.0 53 106
r 3.12728 1 0 ack 40 ------- 1 2.0 0.0 52 105
r 3.14664 1 2 tcp 1040 ------- 1 0.0 2.0 53 106
+ 3.14664 2 1 ack 40 ------- 1 2.0 0.0 53 107
- 3.14664 2 1 ack 40 ------- 1 2.0 0.0 53 107
+ 3.15 0 1 tcp 1040 ------- 1 0.0 2.0 54 108
- 3.15 0 1 tcp 1040 ------- 1 0.0 2.0 54 108
r 3.16196 2 1 ack 40 ------- 1 2.0 0.0 53 107
+ 3.16196 1 0 ack 40 ------- 1 2.0 0.0 53 107
- 3.16196 1 0 ack 40 ------- 1 2.0 0.0 53 107
r 3.17332 0 1 tcp 1040 ------- 1 0.0 2.0 54 108
+ 3.17332 1 2 tcp 1040 ------- 1 0.0 2.0 54 108
- 3.17332 1 2 tcp 1040 ------- 1 0.0 2.0 54 108
r 3.17728 1 0 ack 40 ------- 1 2.0 0.0 53 107
r 3.19664 1 2 tcp 1040 ------- 1 0.0 2.0 54 108
+ 3.19664 2 1 ack 40 ------- 1 2.0 0.0 54 109
- 3.19664 2 1 ack 40 ------- 1 2.0 0.0 54 109
+ 3.2 0 1 tcp 1040 ------- 1 0.0 2.0 55 110
- 3.2 0 1 tcp 1040 ------- 1 0.0 2.0 55 110
r 3.21196 2 1 ack 40 ------- 1 2.0 0.0 54 109
+ 3.21196 1 0 ack 40 ------- 1 2.0 0.0 54 109
- 3.21196 1 0 ack 40 ------- 1 2.0 0.0 54 109
r 3.22332 0 1 tcp 1040 ------- 1 0.0 2.0 55 110
+ 3.22332 1 2 tcp 1040 ------- 1 0.0 2.0 55 110