V -t * -v 1.0a5 -a 0
A -t * -n 1 -p 0 -o 0x7fffffff -c 30 -a 1
A -t * -h 1 -m 1073741823 -s 0
n -t * -a 4 -s 4 -S UP -v circle -c black -i black
n -t * -a 0 -s 0 -S UP -v circle -c black -i black
n -t * -a 5 -s 5 -S UP -v circle -c black -i black
n -t * -a 1 -s 1 -S UP -v circle -c black -i black
n -t * -a 2 -s 2 -S UP -v circle -c black -i black
n -t * -a 3 -s 3 -S UP -v circle -c black -i black
l -t * -s 0 -d 1 -S UP -r 1000000 -D 0.014999999999999999 -c black
l -t * -s 1 -d 2 -S UP -r 1000000 -D 0.014999999999999999 -c black
l -t * -s 2 -d 3 -S UP -r 1000000 -D 0.014999999999999999 -c black
l -t * -s 3 -d 4 -S UP -r 1000000 -D 0.014999999999999999 -c black
l -t * -s 4 -d 5 -S UP -r 1000000 -D 0.014999999999999999 -c black
l -t * -s 5 -d 0 -S UP -r 1000000 -D 0.014999999999999999 -c black
+ -t 0.5 -s 0 -d 1 -p tcp -e 40 -c 1 -i 0 -a 1 -x {0.0 2.0 0 ------- null}
- -t 0.5 -s 0 -d 1 -p tcp -e 40 -c 1 -i 0 -a 1 -x {0.0 2.0 0 ------- null}
h -t 0.5 -s 0 -d 1 -p tcp -e 40 -c 1 -i 0 -a 1 -x {0.0 2.0 -1 ------- null}
r -t 0.51532 -s 0 -d 1 -p tcp -e 40 -c 1 -i 0 -a 1 -x {0.0 2.0 0 ------- null}
+ -t 0.51532 -s 1 -d 2 -p tcp -e 40 -c 1 -i 0 -a 1 -x {0.0 2.0 0 ------- null}
- -t 0.51532 -s 1 -d 2 -p tcp -e 40 -c 1 -i 0 -a 1 -x {0.0 2.0 0 ------- null}
h -t 0.51532 -s 1 -d 2 -p tcp -e 40 -c 1 -i 0 -a 1 -x {0.0 2.0 -1 ------- null}
r -t 0.53064 -s 1 -d 2 -p tcp -e 40 -c 1 -i 0 -a 1 -x {0.0 2.0 0 ------- null}
+ -t 0.53064 -s 2 -d 1 -p ack -e 40 -c 1 -i 1 -a 1 -x {2.0 0.0 0 ------- null}
- -t 0.53064 -s 2 -d 1 -p ack -e 40 -c 1 -i 1 -a 1 -x {2.0 0.0 0 ------- null}
h -t 0.53064 -s 2 -d 1 -p ack -e 40 -c 1 -i 1 -a 1 -x {2.0 0.0 -1 ------- null}
r -t 0.54596 -s 2 -d 1 -p ack -e 40 -c 1 -i 1 -a 1 -x {2.0 0.0 0 ------- null}
+ -t 0.54596 -s 1 -d 0 -p ack -e 40 -c 1 -i 1 -a 1 -x {2.0 0.0 0 ------- null}
- -t 0.54596 -s 1 -d 0 -p ack -e 40 -c 1 -i 1 -a 1 -x {2.0 0.0 0 ------- null}
h -t 0.54596 -s 1 -d 0 -p ack -e 40 -c 1 -i 1 -a 1 -x {2.0 0.0 -1 ------- null}
r -t 0.56128 -s 1 -d 0 -p ack -e 40 -c 1 -i 1 -a 1 -x {2.0 0.0 0 ------- null}
+ -t 0.56128 -s 0 -d 1 -p tcp -e 1040 -c 1 -i 2 -a 1 -x {0.0 2.0 1 ------- null}
- -t 0.56128 -s 0 -d 1 -p tcp -e 1040 -c 1 -i 2 -a 1 -x {0.0 2.0 1 ------- null}
h -t 0.56128 -s 0 -d 1 -p tcp -e 1040 -c 1 -i 2 -a 1 -x {0.0 2.0 -1 ------- null}
+ -t 0.56128 -s 0 -d 1 -p tcp -e 1040 -c 1 -i 3 -a 1 -x {0.0 2.0 2 ------- null}
- -t 0.5696 -s 0 -d 1 -p tcp -e 1040 -c 1 -i 3 -a 1 -x {0.0 2.0 2 ------- null}
h -t 0.5696 -s 0 -d 1 -p tcp -e 1040 -c 1 -i 3 -a 1 -x {0.0 2.0 -1 ------- null}
r -t 0.5846 -s 0 -d 1 -p tcp -e 1040 -c 1 -i 2 -a 1 -x {0.0 2.0 1 ------- null}
+ -t 0.5846 -s 1 -d 2 -p tcp -e 1040 -c 1 -i 2 -a 1 -x {0.0 2.0 1 ------- null}
- -t 0.5846 -s 1 -d 2 -p tcp -e 1040 -c 1 -i 2 -a 1 -x {0.0 2.0 1 ------- null}
h -t 0.5846 -s 1 -d 2 -p tcp -e 1040 -c 1 -i 2 -a 1 -x {0.0 2.0 -1 ------- null}
r -t 0.59292 -s 0 -d 1 -p tcp -e 1040 -c 1 -i 3 -a 1 -x {0.0 2.0 2 ------- null}
+ -t 0.59292 -s 1 -d 2 -p tcp -e 1040 -c 1 -i 3 -a 1 -x {0.0 2.0 2 ------- null}
- -t 0.59292 -s 1 -d 2 -p tcp -e 1040 -c 1 -i 3 -a 1 -x {0.0 2.0 2 ------- null}
h -t 0.59292 -s 1 -d 2 -p tcp -e 1040 -c 1 -i 3 -a 1 -x {0.0 2.0 -1 ------- null}
r -t 0.60792 -s 1 -d 2 -p tcp -e 1040 -c 1 -i 2 -a 1 -x {0.0 2.0 1 ------- null}
+ -t 0.60792 -s 2 -d 1 -p ack -e 40 -c 1 -i 4 -a 1 -x {2.0 0.0 1 ------- null}
- -t 0.60792 -s 2 -d 1 -p ack -e 40 -c 1 -i 4 -a 1 -x {2.0 0.0 1 ------- null}
h -t 0.60792 -s 2 -d 1 -p ack -e 40 -c 1 -i 4 -a 1 -x {2.0 0.0 -1 ------- null}
r -t 0.61624 -s 1 -d 2 -p tcp -e 1040 -c 1 -i 3 -a 1 -x {0.0 2.0 2 ------- null}
+ -t 0.61624 -s 2 -d 1 -p ack -e 40 -c 1 -i 5 -a 1 -x {2.0 0.0 2 ------- null}
- -t 0.61624 -s 2 -d 1 -p ack -e 40 -c 1 -i 5 -a 1 -x {2.0 0.0 2 ------- null}
h -t 0.61624 -s 2 -d 1 -p ack -e 40 -c 1 -i 5 -a 1 -x {2.0 0.0 -1 ------- null}
r -t 0.62324 -s 2 -d 1 -p ack -e 40 -c 1 -i 4 -a 1 -x {2.0 0.0 1 ------- null}
+ -t 0.62324 -s 1 -d 0 -p ack -e 40 -c 1 -i 4 -a 1 -x {2.0 0.0 1 ------- null}
- -t 0.62324 -s 1 -d 0 -p ack -e 40 -c 1 -i 4 -a 1 -x {2.0 0.0 1 ------- null}
h -t 0.62324 -s 1 -d 0 -p ack -e 40 -c 1 -i 4 -a 1 -x {2.0 0.0 -1 ------- null}
r -t 0.63156 -s 2 -d 1 -p ack -e 40 -c 1 -i 5 -a 1 -x {2.0 0.0 2 ------- null}
+ -t 0.63156 -s 1 -d 0 -p ack -e 40 -c 1 -i 5 -a 1 -x {2.0 0.0 2 ------- null}
- -t 0.63156 -s 1 -d 0 -p ack -e 40 -c 1 -i 5 -a 1 -x {2.0 0.0 2 ------- null}
h -t 0.63156 -s 1 -d 0 -p ack -e 40 -c 1 -i 5 -a 1 -x {2.0 0.0 -1 ------- null}
r -t 0.63856 -s 1 -d 0 -p ack -e 40 -c 1 -i 4 -a 1 -x {2.0 0.0 1 ------- null}
+ -t 0.63856 -s 0 -d 1 -p tcp -e 1040 -c 1 -i 6 -a 1 -x {0.0 2.0 3 ------- null}
- -t 0.63856 -s 0 -d 1 -p tcp -e 1040 -c 1 -i 6 -a 1 -x {0.0 2.0 3 ------- null}
h -t 0.63856 -s 0 -d 1 -p tcp -e 1040 -c 1 -i 6 -a 1 -x {0.0 2.0 -1 ------- null}
r -t 0.64688 -s 1 -d 0 -p ack -e 40 -c 1 -i 5 -a 1 -x {2.0 0.0 2 ------- null}
+ -t 0.65 -s 0 -d 1 -p tcp -e 1040 -c 1 -i 7 -a 1 -x {0.0 2.0 4 ------- null}
- -t 0.65 -s 0 -d 1 -p tcp -e 1040 -c 1 -i 7 -a 1 -x {0.0 2.0 4 ------- null}
h -t 0.65 -s 0 -d 1 -p tcp -e 1040 -c 1 -i 7 -a 1 -x {0.0 2.0 -1 ------- null}
r -t 0.66188 -s 0 -d 1 -p tcp -e 1040 -c 1 -i 6 -a 1 -x {0.0 2.0 3 ------- null}
+ -t 0.66188 -s 1 -d 2 -p tcp -e 1040 -c 1 -i 6 -a 1 -x {0.0 2.0 3 ------- null}
- -t 0.66188 -s 1 -d 2 -p tcp -e 1040 -c 1 -i 6 -a 1 -x {0.0 2.0 3 ------- null}
h -t 0.66188 -s 1 -d 2 -p tcp -e 1040 -c 1 -i 6 -a 1 -x {0.0 2.0 -1 ------- null}
r -t 0.67332 -s 0 -d 1 -p tcp -e 1040 -c 1 -i 7 -a 1 -x {0.0 2.0 4 ------- null}
+ -t 0.67332 -s 1 -d 2 -p tcp -e 1040 -c 1 -i 7 -a 1 -x {0.0 2.0 4 ------- null}
- -t 0.67332 -s 1 -d 2 -p tcp -e 1040 -c 1 -i 7 -a 1 -x {0.0 2.0 4 ------- null}
h -t 0.67332 -s 1 -d 2 -p tcp -e 1040 -c 1 -i 7 -a 1 -x {0.0 2.0 -1 ------- null}
r -t 0.6852 -s 1 -d 2 -p tcp -e 1040 -c 1 -i 6 -a 1 -x {0.0 2.0 3 ------- null}
+ -t 0.6852 -s 2 -d 1 -p ack -e 40 -c 1 -i 8 -a 1 -x {2.0 0.0 3 ------- null}
- -t 0.6852 -s 2 -d 1 -p ack -e 40 -c 1 -i 8 -a 1 -x {2.0 0.0 3 ------- null}
h -t 0.6852 -s 2 -d 1 -p ack -e 40 -c 1 -i 8 -a 1 -x {2.0 0.0 -1 ------- null}
r -t 0.69664 -s 1 -d 2 -p tcp -e 1040 -c 1 -i 7 -a 1 -x {0.0 2.0 4 ------- null}
+ -t 0.69664 -s 2 -d 1 -p ack -e 40 -c 1 -i 9 -a 1 -x {2.0 0.0 4 ------- null}
- -t 0.69664 -s 2 -d 1 -p ack -e 40 -c 1 -i 9 -a 1 -x {2.0 0.0 4 ------- null}
h -t 0.69664 -s 2 -d 1 -p ack -e 40 -c 1 -i 9 -a 1 -x {2.0 0.0 -1 ------- null}
+ -t 0.7 -s 0 -d 1 -p tcp -e 1040 -c 1 -i 10 -a 1 -x {0.0 2.0 5 ------- null}
- -t 0.7 -s 0 -d 1 -p tcp -e 1040 -c 1 -i 10 -a 1 -x {0.0 2.0 5 ------- null}
h -t 0.7 -s 0 -d 1 -p tcp -e 1040 -c 1 -i 10 -a 1 -x {0.0 2.0 -1 ------- null}
r -t 0.70052 -s 2 -d 1 -p ack -e 40 -c 1 -i 8 -a 1 -x {2.0 0.0 3 ------- null}
+ -t 0.70052 -s 1 -d 0 -p ack -e 40 -c 1 -i 8 -a 1 -x {2.0 0.0 3 ------- null}
- -t 0.70052 -s 1 -d 0 -p ack -e 40 -c 1 -i 8 -a 1 -x {2.0 0.0 3 ------- null}
h -t 0.70052 -s 1 -d 0 -p ack -e 40 -c 1 -i 8 -a 1 -x {2.0 0.0 -1 ------- null}
r -t 0.71196 -s 2 -d 1 -p ack -e 40 -c 1 -i 9 -a 1 -x {2.0 0.0 4 ------- null}
+ -t 0.71196 -s 1 -d 0 -p ack -e 40 -c 1 -i 9 -a 1 -x {2.0 0.0 4 ------- null}
- -t 0.71196 -s 1 -d 0 -p ack -e 40 -c 1 -i 9 -a 1 -x {2.0 0.0 4 ------- null}
h -t 0.71196 -s 1 -d 0 -p ack -e 40 -c 1 -i 9 -a 1 -x {2.0 0.0 -1 ------- null}
r -t 0.71584 -s 1 -d 0 -p ack -e 40 -c 1 -i 8 -a 1 -x {2.0 0.0 3 ------- null}
r -t 0.72332 -s 0 -d 1 -p tcp -e 1040 -c 1 -i 10 -a 1 -x {0.0 2.0 5 ------- null}
+ -t 0.72332 -s 1 -d 2 -p tcp -e 1040 -c 1 -i 10 -a 1 -x {0.0 2.0 5 ------- null}
- -t 0.72332 -s 1 -d 2 -p tcp -e 1040 -c 1 -i 10 -a 1 -x {0.0 2.0 5 ------- null}
h -t 0.72332 -s 1 -d 2 -p tcp -e 1040 -c 1 -i 10 -a 1 -x {0.0 2.0 -1 ------- null}
r -t 0.72728 -s 1 -d 0 -p ack -e 40 -c 1 -i 9 -a 1 -x {2.0 0.0 4 ------- null}
r -t 0.74664 -s 1 -d 2 -p tcp -e 1040 -c 1 -i 10 -a 1 -x {0.0 2.0 5 ------- null}
+ -t 0.74664 -s 2 -d 1 -p ack -e 40 -c 1 -i 11 -a 1 -x {2.0 0.0 5 ------- null}
- -t 0.74664 -s 2 -d 1 -p ack -e 40 -c 1 -i 11 -a 1 -x {2.0 0.0 5 ------- null}
h -t 0.74664 -s 2 -d 1 -p ack -e 40 -c 1 -i 11 -a 1 -x {2.0 0.0 -1 ------- null}
+ -t 0.75 -s 0 -d 1 -p tcp -e 1040 -c 1 -i 12 -a 1 -x {0.0 2.0 6 ------- null}
- -t 0.75 -s 0 -d 1 -p tcp -e 1040 -c 1 -i 12 -a 1 -x {0.0 2.0 6 ------- null}
h -t 0.75 -s 0 -d 1 -p tcp -e 1040 -c 1 -i 12 -a 1 -x {0.0 2.0 -1 ------- null}
r -t 0.76196 -s 2 -d 1 -p ack -e 40 -c 1 -i 11 -a 1 -x {2.0 0.0 5 ------- null}
+ -t 0.76196 -s 1 -d 0 -p ack -e 40 -c 1 -i 11 -a 1 -x {2.0 0.0 5 ------- null}
- -t 0.76196 -s 1 -d 0 -p ack -e 40 -c 1 -i 11 -a 1 -x {2.0 0.0 5 ------- null}
h -t 0.76196 -s 1 -d 0 -p ack -e 40 -c 1 -i 11 -a 1 -x {2.0 0.0 -1 ------- null}
r -t 0.77332 -s 0 -d 1 -p tcp -e 1040 -c 1 -i 12 -a 1 -x {0.0 2.0 6 ------- null}
+ -t 0.77332 -s 1 -d 2 -p tcp -e 1040 -c 1 -i 12 -a 1 -x {0.0 2.0 6 ------- null}
- -t 0.77332 -s 1 -d 2 -p tcp -e 1040 -c 1 -i 12 -a 1 -x {0.0 2.0 6 ------- null}
h -t 0.77332 -s 1 -d 2 -p tcp -e 1040 -c 1 -i 12 -a 1 -x {0.0 2.0 -1 ------- null}
r -t 0.77728 -s 1 -d 0 -p ack -e 40 -c 1 -i 11 -a 1 -x {2.0 0.0 5 ------- null}
r -t 0.79664 -s 1 -d 2 -p tcp -e 1040 -c 1 -i 12 -a 1 -x {0.0 2.0 6 ------- null}
+ -t 0.79664 -s 2 -d 1 -p ack -e 40 -c 1 -i 13 -a 1 -x {2.0 0.0 6 ------- null}
- -t 0.79664 -s 2 -d 1 -p ack -e 40 -c 1 -i 13 -a 1 -x {2.0 0.0 6 ------- null}
h -t 0.79664 -s 2 -d 1 -p ack -e 40 -c 1 -i 13 -a 1 -x {2.0 0.0 -1 ------- null}
+ -t 0.8 -s 0 -d 1 -p tcp -e 1040 -c 1 -i 14 -a 1 -x {0.0 2.0 7 ------- null}
- -t 0.8 -s 0 -d 1 -p tcp -e 1040 -c 1 -i 14 -a 1 -x {0.0 2.0 7 ------- null}
h -t 0.8 -s 0 -d 1 -p tcp -e 1040 -c 1 -i 14 -a 1 -x {0.0 2.0 -1 ------- null}
r -t 0.81196 -s 2 -d 1 -p ack -e 40 -c 1 -i 13 -a 1 -x {2.0 0.0 6 ------- null}
+ -t 0.81196 -s 1 -d 0 -p ack -e 40 -c 1 -i 13 -a 1 -x {2.0 0.0 6 ------- null}
- -t 0.81196 -s 1 -d 0 -p ack -e 40 -c 1 -i 13 -a 1 -x {2.0 0.0 6 ------- null}
h -t 0.81196 -s 1 -d 0 -p ack -e 40 -c 1 -i 13 -a 1 -x {2.0 0.0 -1 ------- null}
r -t 0.82332 -s 0 -d 1 -p tcp -e 1040 -c 1 -i 14 -a 1 -x {0.0 2.0 7 ------- null}
+ -t 0.82332 -s 1 -d 2 -p tcp -e 1040 -c 1 -i 14 -a 1 -x {0.0 2.0 7 ------- null}
- -t 0.82332 -s 1 -d 2 -p tcp -e 1040 -c 1 -i 14 -a 1 -x {0.0 2.0 7 ------- null}
h -t 0.82332 -s 1 -d 2 -p tcp -e 1040 -c 1 -i 14 -a 1 -x {0.0 2.0 -1 ------- null}
r -t 0.82728 -s 1 -d 0 -p ack -e 40 -c 1 -i 13 -a 1 -x {2.0 0.0 6 ------- null}
r -t 0.84664 -s 1 -d 2 -p tcp -e 1040 -c 1 -i 14 -a 1 -x {0.0 2.0 7 ------- null}
+ -t 0.84664 -s 2 -d 1 -p ack -e 40 -c 1 -i 15 -a 1 -x {2.0 0.0 7 ------- null}
- -t 0.84664 -s 2 -d 1 -p ack -e 40 -c 1 -i 15 -a 1 -x {2.0 0.0 7 ------- null}
h -t 0.84664 -s 2 -d 1 -p ack -e 40 -c 1 -i 15 -a 1 -x {2.0 0.0 -1 ------- null}
+ -t 0.85 -s 0 -d 1 -p tcp -e 1040 -c 1 -i 16 -a 1 -x {0.0 2.0 8 ------- null}
- -t 0.85 -s 0 -d 1 -p tcp -e 1040 -c 1 -i 16 -a 1 -x {0.0 2.0 8 ------- null}
h -t 0.85 -s 0 -d 1 -p tcp -e 1040 -c 1 -i 16 -a 1 -x {0.0 2.0 -1 ------- null}
r -t 0.86196 -s 2 -d 1 -p ack -e 40 -c 1 -i 15 -a 1 -x {2.0 0.0 7 ------- null}
+ -t 0.86196 -s 1 -d 0 -p ack -e 40 -c 1 -i 15 -a 1 -x {2.0 0.0 7 ------- null}
- -t 0.86196 -s 1 -d 0 -p ack -e 40 -c 1 -i 15 -a 1 -x {2.0 0.0 7 ------- null}
h -t 0.86196 -s 1 -d 0 -p ack -e 40 -c 1 -i 15 -a 1 -x {2.0 0.0 -1 ------- null}
r -t 0.87332 -s 0 -d 1 -p tcp -e 1040 -c 1 -i 16 -a 1 -x {0.0 2.0 8 ------- null}
+ -t 0.87332 -s 1 -d 2 -p tcp -e 1040 -c 1 -i 16 -a 1 -x {0.0 2.0 8 ------- null}
- -t 0.87332 -s 1 -d 2 -p tcp -e 1040 -c 1 -i 16 -a 1 -x {0.0 2.0 8 ------- null}
h -t 0.87332 -s 1 -d 2 -p tcp -e 1040 -c 1 -i 16 -a 1 -x {0.0 2.0 -1 ------- null}
r -t 0.87728 -s 1 -d 0 -p ack -e 40 -c 1 -i 15 -a 1 -x {2.0 0.0 7 ------- null}
r -t 0.89664 -s 1 -d 2 -p tcp -e 1040 -c 1 -i 16 -a 1 -x {0.0 2.0 8 ------- null}
+ -t 0.89664 -s 2 -d 1 -p ack -e 40 -c 1 -i 17 -a 1 -x {2.0 0.0 8 ------- null}
- -t 0.89664 -s 2 -d 1 -p ack -e 40 -c 1 -i 17 -a 1 -x {2.0 0.0 8 ------- null}
h -t 0.89664 -s 2 -d 1 -p ack -e 40 -c 1 -i 17 -a 1 -x {2.0 0.0 -1 ------- null}
+ -t 0.9 -s 0 -d 1 -p tcp -e 1040 -c 1 -i 18 -a 1 -x {0.0 2.0 9 ------- null}
- -t 0.9 -s 0 -d 1 -p tcp -e 1040 -c 1 -i 18 -a 1 -x {0.0 2.0 9 ------- null}
h -t 0.9 -s 0 -d 1 -p tcp -e 1040 -c 1 -i 18 -a 1 -x {0.0 2.0 -1 ------- null}
r -t 0.91196 -s 2 -d 1 -p ack -e 40 -c 1 -i 17 -a 1 -x {2.0 0.0 8 ------- null}
+ -t 0.91196 -s 1 -d 0 -p ack -e 40 -c 1 -i 17 -a 1 -x {2.0 0.0 8 ------- null}
- -t 0.91196 -s 1 -d 0 -p ack -e 40 -c 1 -i 17 -a 1 -x {2.0 0.0 8 ------- null}
h -t 0.91196 -s 1 -d 0 -p ack -e 40 -c 1 -i 17 -a 1 -x {2.0 0.0 -1 ------- null}
r -t 0.92332 -s 0 -d 1 -p tcp -e 1040 -c 1 -i 18 -a 1 -x {0.0 2.0 9 ------- null}
+ -t 0.92332 -s 1 -d 2 -p tcp -e 1040 -c 1 -i 18 -a 1 -x {0.0 2.0 9 ------- null}
- -t 0.92332 -s 1 -d 2 -p tcp -e 1040 -c 1 -i 18 -a 1 -x {0.0 2.0 9 ------- null}
h -t 0.92332 -s 1 -d 2 -p tcp -e 1040 -c 1 -i 18 -a 1 -x {0.0 2.0 -1 ------- null}
r -t 0.92728 -s 1 -d 0 -p ack -e 40 -c 1 -i 17 -a 1 -x {2.0 0.0 8 ------- null}
r -t 0.94664 -s 1 -d 2 -p tcp -e 1040 -c 1 -i 18 -a 1 -x {0.0 2.0 9 ------- null}
+ -t 0.94664 -s 2 -d 1 -p ack -e 40 -c 1 -i 19 -a 1 -x {2.0 0.0 9 ------- null}
- -t 0.94664 -s 2 -d 1 -p ack -e 40 -c 1 -i 19 -a 1 -x {2.0 0.0 9 ------- null}
h -t 0.94664 -s 2 -d 1 -p ack -e 40 -c 1 -i 19 -a 1 -x {2.0 0.0 -1 ------- null}
+ -t 0.95 -s 0 -d 1 -p tcp -e 1040 -c 1 -i 20 -a 1 -x {0.0 2.0 10 ------- null}
- -t 0.95 -s 0 -d 1 -p tcp -e 1040 -c 1 -i 20 -a 1 -x {0.0 2.0 10 ------- null}
h -t 0.95 -s 0 -d 1 -p tcp -e 1040 -c 1 -i 20 -a 1 -x {0.0 2.0 -1 ------- null}
r -t 0.96196 -s 2 -d 1 -p ack -e 40 -c 1 -i 19 -a 1 -x {2.0 0.0 9 ------- null}
+ -t 0.96196 -s 1 -d 0 -p ack -e 40 -c 1 -i 19 -a 1 -x {2.0 0.0 9 ------- null}
- -t 0.96196 -s 1 -d 0 -p ack -e 40 -c 1 -i 19 -a 1 -x {2.0 0.0 9 ------- null}
h -t 0.96196 -s 1 -d 0 -p ack -e 40 -c 1 -i 19 -a 1 -x {2.0 0.0 -1 ------- null}
r -t 0.97332 -s 0 -d 1 -p tcp -e 1040 -c 1 -i 20 -a 1 -x {0.0 2.0 10 ------- null}
+ -t 0.97332 -s 1 -d 2 -p tcp -e 1040 -c 1 -i 20 -a 1 -x {0.0 2.0 10 ------- null}
- -t 0.97332 -s 1 -d 2 -p tcp -e 1040 -c 1 -i 20 -a 1 -x {0.0 2.0 10 ------- null}
h -t 0.97332 -s 1 -d 2 -p tcp -e 1040 -c 1 -i 20 -a 1 -x {0.0 2.0 -1 ------- null}
r -t 0.97728 -s 1 -d 0 -p ack -e 40 -c 1 -i 19 -a 1 -x {2.0 0.0 9 ------- null}
r -t 0.99664 -s 1 -d 2 -p tcp -e 1040 -c 1 -i 20 -a 1 -x {0.0 2.0 10 ------- null}
+ -t 0.99664 -s 2 -d 1 -p ack -e 40 -c 1 -i 21 -a 1 -x {2.0 0.0 10 ------- null}
- -t 0.99664 -s 2 -d 1 -p ack -e 40 -c 1 -i 21 -a 1 -x {2.0 0.0 10 ------- null}
h -t 0.99664 -s 2 -d 1 -p ack -e 40 -c 1 -i 21 -a 1 -x {2.0 0.0 -1 ------- null}
+ -t 1 -s 0 -d 1 -p tcp -e 1040 -c 1 -i 22 -a 1 -x {0.0 2.0 11 ------- null}
- -t 1 -s 0 -d 1 -p tcp -e 1040 -c 1 -i 22 -a 1 -x {0.0 2.0 11 ------- null}
h -t 1 -s 0 -d 1 -p tcp -e 1040 -c 1 -i 22 -a 1 -x {0.0 2.0 -1 ------- null}
r -t 1.01196 -s 2 -d 1 -p ack -e 40 -c 1 -i 21 -a 1 -x {2.0 0.0 10 ------- null}
+ -t 1.01196 -s 1 -d 0 -p ack -e 40 -c 1 -i 21 -a 1 -x {2.0 0.0 10 ------- null}
- -t 1.01196 -s 1 -d 0 -p ack -e 40 -c 1 -i 21 -a 1 -x {2.0 0.0 10 ------- null}
h -t 1.01196 -s 1 -d 0 -p ack -e 40 -c 1 -i 21 -a 1 -x {2.0 0.0 -1 ------- null}
r -t 1.02332 -s 0 -d 1 -p tcp -e 1040 -c 1 -i 22 -a 1 -x {0.0 2.0 11 ------- null}
+ -t 1.02332 -s 1 -d 2 -p tcp -e 1040 -c 1 -i 22 -a 1 -x {0.0 2.0 11 ------- null}
- -t 1.02332 -s 1 -d 2 -p tcp -e 1040 -c 1 -i 22 -a 1 -x {0.0 2.0 11 ------- null}
h -t 1.02332 -s 1 -d 2 -p tcp -e 1040 -c 1 -i 22 -a 1 -x {0.0 2.0 -1 ------- null}
r -t 1.02728 -s 1 -d 0 -p ack -e 40 -c 1 -i 21 -a 1 -x {2.0 0.0 10 ------- null}
r -t 1.04664 -s 1 -d 2 -p tcp -e 1040 -c 1 -i 22 -a 1 -x {0.0 2.0 11 ------- null}
+ -t 1.04664 -s 2 -d 1 -p ack -e 40 -c 1 -i 23 -a 1 -x {2.0 0.0 11 ------- null}
- -t 1.04664 -s 2 -d 1 -p ack -e 40 -c 1 -i 23 -a 1 -x {2.0 0.0 11 ------- null}
h -t 1.04664 -s 2 -d 1 -p ack -e 40 -c 1 -i 23 -a 1 -x {2.0 0.0 -1 ------- null}
+ -t 1.05 -s 0 -d 1 -p tcp -e 1040 -c 1 -i 24 -a 1 -x {0.0 2.0 12 ------- null}
- -t 1.05 -s 0 -d 1 -p tcp -e 1040 -c 1 -i 24 -a 1 -x {0.0 2.0 12 ------- null}
h -t 1.05 -s 0 -d 1 -p tcp -e 1040 -c 1 -i 24 -a 1 -x {0.0 2.0 -1 ------- null}
r -t 1.06196 -s 2 -d 1 -p ack -e 40 -c 1 -i 23 -a 1 -x {2.0 0.0 11 ------- null}
+ -t 1.06196 -s 1 -d 0 -p ack -e 40 -c 1 -i 23 -a 1 -x {2.0 0.0 11 ------- null}
- -t 1.06196 -s 1 -d 0 -p ack -e 40 -c 1 -i 23 -a 1 -x {2.0 0.0 11 ------- null}
h -t 1.06196 -s 1 -d 0 -p ack -e 40 -c 1 -i 23 -a 1 -x {2.0 0.0 -1 ------- null}
r -t 1.07332 -s 0 -d 1 -p tcp -e 1040 -c 1 -i 24 -a 1 -x {0.0 2.0 12 ------- null}
+ -t 1.07332 -s 1 -d 2 -p tcp -e 1040 -c 1 -i 24 -a 1 -x {0.0 2.0 12 ------- null}
- -t 1.07332 -s 1 -d 2 -p tcp -e 1040 -c 1 -i 24 -a 1 -x {0.0 2.0 12 ------- null}
h -t 1.07332 -s 1 -d 2 -p tcp -e 1040 -c 1 -i 24 -a 1 -x {0.0 2.0 -1 ------- null}
r -t 1.07728 -s 1 -d 0 -p ack -e 40 -c 1 -i 23 -a 1 -x {2.0 0.0 11 ------- null}
r -t 1.09664 -s 1 -d 2 -p tcp -e 1040 -c 1 -i 24 -a 1 -x {0.0 2.0 12 ------- null}
+ -t 1.09664 -s 2 -d 1 -p ack -e 40 -c 1 -i 25 -a 1 -x {2.0 0.0 12 ------- null}
- -t 1.09664 -s 2 -d 1 -p ack -e 40 -c 1 -i 25 -a 1 -x {2.0 0.0 12 ------- null}
h -t 1.09664 -s 2 -d 1 -p ack -e 40 -c 1 -i 25 -a 1 -x {2.0 0.0 -1 ------- null}
+ -t 1.1 -s 0 -d 1 -p tcp -e 1040 -c 1 -i 26 -a 1 -x {0.0 2.0 13 ------- null}
- -t 1.1 -s 0 -d 1 -p tcp -e 1040 -c 1 -i 26 -a 1 -x {0.0 2.0 13 ------- null}
h -t 1.1 -s 0 -d 1 -p tcp -e 1040 -c 1 -i 26 -a 1 -x {0.0 2.0 -1 ------- null}
r -t 1.11196 -s 2 -d 1 -p ack -e 40 -c 1 -i 25 -a 1 -x {2.0 0.0 12 ------- null}
+ -t 1.11196 -s 1 -d 0 -p ack -e 40 -c 1 -i 25 -a 1 -x {2.0 0.0 12 ------- null}
- -t 1.11196 -s 1 -d 0 -p ack -e 40 -c 1 -i 25 -a 1 -x {2.0 0.0 12 ------- null}
h -t 1.11196 -s 1 -d 0 -p ack -e 40 -c 1 -i 25 -a 1 -x {2.0 0.0 -1 ------- null}
r -t 1.12332 -s 0 -d 1 -p tcp -e 1040 -c 1 -i 26 -a 1 -x {0.0 2.0 13 ------- null}
+ -t 1.12332 -s 1 -d 2 -p tcp -e 1040 -c 1 -i 26 -a 1 -x {0.0 2.0 13 ------- null}
- -t 1.12332 -s 1 -d 2 -p tcp -e 1040 -c 1 -i 26 -a 1 -x {0.0 2.0 13 ------- null}
h -t 1.12332 -s 1 -d 2 -p tcp -e 1040 -c 1 -i 26 -a 1 -x {0.0 2.0 -1 ------- null}
r -t 1.12728 -s 1 -d 0 -p ack -e 40 -c 1 -i 25 -a 1 -x {2.0 0.0 12 ------- null}
r -t 1.14664 -s 1 -d 2 -p tcp -e 1040 -c 1 -i 26 -a 1 -x {0.0 2.0 13 ------- null}
+ -t 1.14664 -s 2 -d 1 -p ack -e 40 -c 1 -i 27 -a 1 -x {2.0 0.0 13 ------- null}
- -t 1.14664 -s 2 -d 1 -p ack -e 40 -c 1 -i 27 -a 1 -x {2.0 0.0 13 ------- null}
h -t 1.14664 -s 2 -d 1 -p ack -e 40 -c 1 -i 27 -a 1 -x {2.0 0.0 -1 ------- null}
+ -t 1.15 -s 0 -d 1 -p tcp -e 1040 -c 1 -i 28 -a 1 -x {0.0 2.0 14 ------- null}
- -t 1.15 -s 0 -d 1 -p tcp -e 1040 -c 1 -i 28 -a 1 -x {0.0 2.0 14 ------- null}
h -t 1.15 -s 0 -d 1 -p tcp -e 1040 -c 1 -i 28 -a 1 -x {0.0 2.0 -1 ------- null}
r -t 1.16196 -s 2 -d 1 -p ack -e 40 -c 1 -i 27 -a 1 -x {2.0 0.0 13 ------- null}
+ -t 1.16196 -s 1 -d 0 -p ack -e 40 -c 1 -i 27 -a 1 -x {2.0 0.0 13 ------- null}
- -t 1.16196 -s 1 -d 0 -p ack -e 40 -c 1 -i 27 -a 1 -x {2.0 0.0 13 ------- null}
h -t 1.16196 -s 1 -d 0 -p ack -e 40 -c 1 -i 27 -a 1 -x {2.0 0.0 -1 ------- null}
r -t 1.17332 -s 0 -d 1 -p tcp -e 1040 -c 1 -i 28 -a 1 -x {0.0 2.0 14 ------- null}
+ -t 1.17332 -s 1 -d 2 -p tcp -e 1040 -c 1 -i 28 -a 1 -x {0.0 2.0 14 ------- null}
- -t 1.17332 -s 1 -d 2 -p tcp -e 1040 -c 1 -i 28 -a 1 -x {0.0 2.0 14 ------- null}
h -t 1.17332 -s 1 -d 2 -p tcp -e 1040 -c 1 -i 28 -a 1 -x {0.0 2.0 -1 ------- null}
r -t 1.17728 -s 1 -d 0 -p ack -e 40 -c 1 -i 27 -a 1 -x {2.0 0.0 13 ------- null}
r -t 1.19664 -s 1 -d 2 -p tcp -e 1040 -c 1 -i 28 -a 1 -x {0.0 2.0 14 ------- null}
+ -t 1.19664 -s 2 -d 1 -p ack -e 40 -c 1 -i 29 -a 1 -x {2.0 0.0 14 ------- null}
- -t 1.19664 -s 2 -d 1 -p ack -e 40 -c 1 -i 29 -a 1 -x {2.0 0.0 14 ------- null}
h -t 1.19664 -s 2 -d 1 -p ack -e 40 -c 1 -i 29 -a 1 -x {2.0 0.0 -1 ------- null}
+ -t 1.2 -s 0 -d 1 -p tcp -e 1040 -c 1 -i 30 -a 1 -x {0.0 2.0 15 ------- null}
- -t 1.2 -s 0 -d 1 -p tcp -e 1040 -c 1 -i 30 -a 1 -x {0.0 2.0 15 ------- null}
h -t 1.2 -s 0 -d 1 -p tcp -e 1040 -c 1 -i 30 -a 1 -x {0.0 2.0 -1 ------- null}
r -t 1.21196 -s 2 -d 1 -p ack -e 40 -c 1 -i 29 -a 1 -x {2.0 0.0 14 ------- null}
+ -t 1.21196 -s 1 -d 0 -p ack -e 40 -c 1 -i 29 -a 1 -x {2.0 0.0 14 ------- null}
- -t 1.21196 -s 1 -d 0 -p ack -e 40 -c 1 -i 29 -a 1 -x {2.0 0.0 14 ------- null}
h -t 1.21196 -s 1 -d 0 -p ack -e 40 -c 1 -i 29 -a 1 -x {2.0 0.0 -1 ------- null}
r -t 1.22332 -s 0 -d 1 -p tcp -e 1040 -c 1 -i 30 -a 1 -x {0.0 2.0 15 ------- null}
+ -t 1.22332 -s 1 -d 2 -p tcp -e 1040 -c 1 -i 30 -a 1 -x {0.0 2.0 15 ------- null}
- -t 1.22332 -s 1 -d 2 -p tcp -e 1040 -c 1 -i 30 -a 1 -x {0.0 2.0 15 ------- null}
h -t 1.22332 -s 1 -d 2 -p tcp -e 1040 -c 1 -i 30 -a 1 -x {0.0 2.0 -1 ------- null}
r -t 1.22728 -s 1 -d 0 -p ack -e 40 -c 1 -i 29 -a 1 -x {2.0 0.0 14 ------- null}
r -t 1.24664 -s 1 -d 2 -p tcp -e 1040 -c 1 -i 30 -a 1 -x {0.0 2.0 15 ------- null}
+ -t 1.24664 -s 2 -d 1 -p ack -e 40 -c 1 -i 31 -a 1 -x {2.0 0.0 15 ------- null}
- -t 1.24664 -s 2 -d 1 -p ack -e 40 -c 1 -i 31 -a 1 -x {2.0 0.0 15 ------- null}
h -t 1.24664 -s 2 -d 1 -p ack -e 40 -c 1 -i 31 -a 1 -x {2.0 0.0 -1 ------- null}
+ -t 1.25 -s 0 -d 1 -p tcp -e 1040 -c 1 -i 32 -a 1 -x {0.0 2.0 16 ------- null}
- -t 1.25 -s 0 -d 1 -p tcp -e 1040 -c 1 -i 32 -a 1 -x {0.0 2.0 16 ------- null}
h -t 1.25 -s 0 -d 1 -p tcp -e 1040 -c 1 -i 32 -a 1 -x {0.0 2.0 -1 ------- null}
r -t 1.26196 -s 2 -d 1 -p ack -e 40 -c 1 -i 31 -a 1 -x {2.0 0.0 15 ------- null}
+ -t 1.26196 -s 1 -d 0 -p ack -e 40 -c 1 -i 31 -a 1 -x {2.0 0.0 15 ------- null}
- -t 1.26196 -s 1 -d 0 -p ack -e 40 -c 1 -i 31 -a 1 -x {2.0 0.0 15 ------- null}
h -t 1.26196 -s 1 -d 0 -p ack -e 40 -c 1 -i 31 -a 1 -x {2.0 0.0 -1 ------- null}
r -t 1.27332 -s 0 -d 1 -p tcp -e 1040 -c 1 -i 32 -a 1 -x {0.0 2.0 16 ------- null}
+ -t 1.27332 -s 1 -d 2 -p tcp -e 1040 -c 1 -i 32 -a 1 -x {0.0 2.0 16 ------- null}
- -t 1.27332 -s 1 -d 2 -p tcp -e 1040 -c 1 -i 32 -a 1 -x {0.0 2.0 16 ------- null}
h -t 1.27332 -s 1 -d 2 -p tcp -e 1040 -c 1 -i 32 -a 1 -x {0.0 2.0 -1 ------- null}
r -t 1.27728 -s 1 -d 0 -p ack -e 40 -c 1 -i 31 -a 1 -x {2.0 0.0 15 ------- null}
r -t 1.29664 -s 1 -d 2 -p tcp -e 1040 -c 1 -i 32 -a 1 -x {0.0 2.0 16 ------- null}
+ -t 1.29664 -s 2 -d 1 -p ack -e 40 -c 1 -i 33 -a 1 -x {2.0 0.0 16 ------- null}
- -t 1.29664 -s 2 -d 1 -p ack -e 40 -c 1 -i 33 -a 1 -x {2.0 0.0 16 ------- null}
h -t 1.29664 -s 2 -d 1 -p ack -e 40 -c 1 -i 33 -a 1 -x {2.0 0.0 -1 ------- null}
+ -t 1.3 -s 0 -d 1 -p tcp -e 1040 -c 1 -i 34 -a 1 -x {0.0 2.0 17 ------- null}
- -t 1.3 -s 0 -d 1 -p tcp -e 1040 -c 1 -i 34 -a 1 -x {0.0 2.0 17 ------- null}
h -t 1.3 -s 0 -d 1 -p tcp -e 1040 -c 1 -i 34 -a 1 -x {0.0 2.0 -1 ------- null}
r -t 1.31196 -s 2 -d 1 -p ack -e 40 -c 1 -i 33 -a 1 -x {2.0 0.0 16 ------- null}
+ -t 1.31196 -s 1 -d 0 -p ack -e 40 -c 1 -i 33 -a 1 -x {2.0 0.0 16 ------- null}
- -t 1.31196 -s 1 -d 0 -p ack -e 40 -c 1 -i 33 -a 1 -x {2.0 0.0 16 ------- null}
h -t 1.31196 -s 1 -d 0 -p ack -e 40 -c 1 -i 33 -a 1 -x {2.0 0.0 -1 ------- null}
r -t 1.32332 -s 0 -d 1 -p tcp -e 1040 -c 1 -i 34 -a 1 -x {0.0 2.0 17 ------- null}
+ -t 1.32332 -s 1 -d 2 -p tcp -e 1040 -c 1 -i 34 -a 1 -x {0.0 2.0 17 ------- null}
- -t 1.32332 -s 1 -d 2 -p tcp -e 1040 -c 1 -i 34 -a 1 -x {0.0 2.0 17 ------- null}
h -t 1.32332 -s 1 -d 2 -p tcp -e 1040 -c 1 -i 34 -a 1 -x {0.0 2.0 -1 ------- null}
r -t 1.32728 -s 1 -d 0 -p ack -e 40 -c 1 -i 33 -a 1 -x {2.0 0.0 16 ------- null}
r -t 1.34664 -s 1 -d 2 -p tcp -e 1040 -c 1 -i 34 -a 1 -x {0.0 2.0 17 ------- null}
+ -t 1.34664 -s 2 -d 1 -p ack -e 40 -c 1 -i 35 -a 1 -x {2.0 0.0 17 ------- null}
- -t 1.34664 -s 2 -d 1 -p ack -e 40 -c 1 -i 35 -a 1 -x {2.0 0.0 17 ------- null}
h -t 1.34664 -s 2 -d 1 -p ack -e 40 -c 1 -i 35 -a 1 -x {2.0 0.0 -1 ------- null}
+ -t 1.35 -s 0 -d 1 -p tcp -e 1040 -c 1 -i 36 -a 1 -x {0.0 2.0 18 ------- null}
- -t 1.35 -s 0 -d 1 -p tcp -e 1040 -c 1 -i 36 -a 1 -x {0.0 2.0 18 ------- null}
h -t 1.35 -s 0 -d 1 -p tcp -e 1040 -c 1 -i 36 -a 1 -x {0.0 2.0 -1 ------- null}
r -t 1.36196 -s 2 -d 1 -p ack -e 40 -c 1 -i 35 -a 1 -x {2.0 0.0 17 ------- null}
+ -t 1.36196 -s 1 -d 0 -p ack -e 40 -c 1 -i 35 -a 1 -x {2.0 0.0 17 ------- null}
- -t 1.36196 -s 1 -d 0 -p ack -e 40 -c 1 -i 35 -a 1 -x {2.0 0.0 17 ------- null}
h -t 1.36196 -s 1 -d 0 -p ack -e 40 -c 1 -i 35 -a 1 -x {2.0 0.0 -1 ------- null}
r -t 1.37332 -s 0 -d 1 -p tcp -e 1040 -c 1 -i 36 -a 1 -x {0.0 2.0 18 ------- null}
+ -t 1.37332 -s 1 -d 2 -p tcp -e 1040 -c 1 -i 36 -a 1 -x {0.0 2.0 18 ------- null}
- -t 1.37332 -s 1 -d 2 -p tcp -e 1040 -c 1 -i 36 -a 1 -x {0.0 2.0 18 ------- null}
h -t 1.37332 -s 1 -d 2 -p tcp -e 1040 -c 1 -i 36 -a 1 -x {0.0 2.0 -1 ------- null}
r -t 1.37728 -s 1 -d 0 -p ack -e 40 -c 1 -i 35 -a 1 -x {2.0 0.0 17 ------- null}
r -t 1.39664 -s 1 -d 2 -p tcp -e 1040 -c 1 -i 36 -a 1 -x {0.0 2.0 18 ------- null}
+ -t 1.39664 -s 2 -d 1 -p ack -e 40 -c 1 -i 37 -a 1 -x {2.0 0.0 18 ------- null}
- -t 1.39664 -s 2 -d 1 -p ack -e 40 -c 1 -i 37 -a 1 -x {2.0 0.0 18 ------- null}
h -t 1.39664 -s 2 -d 1 -p ack -e 40 -c 1 -i 37 -a 1 -x {2.0 0.0 -1 ------- null}
+ -t 1.4 -s 0 -d 1 -p tcp -e 1040 -c 1 -i 38 -a 1 -x {0.0 2.0 19 ------- null}
- -t 1.4 -s 0 -d 1 -p tcp -e 1040 -c 1 -i 38 -a 1 -x {0.0 2.0 19 ------- null}
h -t 1.4 -s 0 -d 1 -p tcp -e 1040 -c 1 -i 38 -a 1 -x {0.0 2.0 -1 ------- null}
r -t 1.41196 -s 2 -d 1 -p ack -e 40 -c 1 -i 37 -a 1 -x {2.0 0.0 18 ------- null}
+ -t 1.41196 -s 1 -d 0 -p ack -e 40 -c 1 -i 37 -a 1 -x {2.0 0.0 18 ------- null}
- -t 1.41196 -s 1 -d 0 -p ack -e 40 -c 1 -i 37 -a 1 -x {2.0 0.0 18 ------- null}
h -t 1.41196 -s 1 -d 0 -p ack -e 40 -c 1 -i 37 -a 1 -x {2.0 0.0 -1 ------- null}
r -t 1.42332 -s 0 -d 1 -p tcp -e 1040 -c 1 -i 38 -a 1 -x {0.0 2.0 19 ------- null}
+ -t 1.42332 -s 1 -d 2 -p tcp -e 1040 -c 1 -i 38 -a 1 -x {0.0 2.0 19 ------- null}
- -t 1.42332 -s 1 -d 2 -p tcp -e 1040 -c 1 -i 38 -a 1 -x {0.0 2.0 19 ------- null}
h -t 1.42332 -s 1 -d 2 -p tcp -e 1040 -c 1 -i 38 -a 1 -x {0.0 2.0 -1 ------- null}
r -t 1.42728 -s 1 -d 0 -p ack -e 40 -c 1 -i 37 -a 1 -x {2.0 0.0 18 ------- null}
r -t 1.44664 -s 1 -d 2 -p tcp -e 1040 -c 1 -i 38 -a 1 -x {0.0 2.0 19 ------- null}
+ -t 1.44664 -s 2 -d 1 -p ack -e 40 -c 1 -i 39 -a 1 -x {2.0 0.0 19 ------- null}
- -t 1.44664 -s 2 -d 1 -p ack -e 40 -c 1 -i 39 -a 1 -x {2.0 0.0 19 ------- null}
h -t 1.44664 -s 2 -d 1 -p ack -e 40 -c 1 -i 39 -a 1 -x {2.0 0.0 -1 ------- null}
+ -t 1.45 -s 0 -d 1 -p tcp -e 1040 -c 1 -i 40 -a 1 -x {0.0 2.0 20 ------- null}
- -t 1.45 -s 0 -d 1 -p tcp -e 1040 -c 1 -i 40 -a 1 -x {0.0 2.0 20 ------- null}
h -t 1.45 -s 0 -d 1 -p tcp -e 1040 -c 1 -i 40 -a 1 -x {0.0 2.0 -1 ------- null}
r -t 1.46196 -s 2 -d 1 -p ack -e 40 -c 1 -i 39 -a 1 -x {2.0 0.0 19 ------- null}
+ -t 1.46196 -s 1 -d 0 -p ack -e 40 -c 1 -i 39 -a 1 -x {2.0 0.0 19 ------- null}
- -t 1.46196 -s 1 -d 0 -p ack -e 40 -c 1 -i 39 -a 1 -x {2.0 0.0 19 ------- null}
h -t 1.46196 -s 1 -d 0 -p ack -e 40 -c 1 -i 39 -a 1 -x {2.0 0.0 -1 ------- null}
r -t 1.47332 -s 0 -d 1 -p tcp -e 1040 -c 1 -i 40 -a 1 -x {0.0 2.0 20 ------- null}
+ -t 1.47332 -s 1 -d 2 -p tcp -e 1040 -c 1 -i 40 -a 1 -x {0.0 2.0 20 ------- null}
- -t 1.47332 -s 1 -d 2 -p tcp -e 1040 -c 1 -i 40 -a 1 -x {0.0 2.0 20 ------- null}
h -t 1.47332 -s 1 -d 2 -p tcp -e 1040 -c 1 -i 40 -a 1 -x {0.0 2.0 -1 ------- null}
r -t 1.47728 -s 1 -d 0 -p ack -e 40 -c 1 -i 39 -a 1 -x {2.0 0.0 19 ------- null}
r -t 1.49664 -s 1 -d 2 -p tcp -e 1040 -c 1 -i 40 -a 1 -x {0.0 2.0 20 ------- null}
+ -t 1.49664 -s 2 -d 1 -p ack -e 40 -c 1 -i 41 -a 1 -x {2.0 0.0 20 ------- null}
- -t 1.49664 -s 2 -d 1 -p ack -e 40 -c 1 -i 41 -a 1 -x {2.0 0.0 20 ------- null}
h -t 1.49664 -s 2 -d 1 -p ack -e 40 -c 1 -i 41 -a 1 -x {2.0 0.0 -1 ------- null}
+ -t 1.5 -s 0 -d 1 -p tcp -e 1040 -c 1 -i 42 -a 1 -x {0.0 2.0 21 ------- null}
- -t 1.5 -s 0 -d 1 -p tcp -e 1040 -c 1 -i 42 -a 1 -x {0.0 2.0 21 ------- null}
h -t 1.5 -s 0 -d 1 -p tcp -e 1040 -c 1 -i 42 -a 1 -x {0.0 2.0 -1 ------- null}
r -t 1.51196 -s 2 -d 1 -p ack -e 40 -c 1 -i 41 -a 1 -x {2.0 0.0 20 ------- null}
+ -t 1.51196 -s 1 -d 0 -p ack -e 40 -c 1 -i 41 -a 1 -x {2.0 0.0 20 ------- null}
- -t 1.51196 -s 1 -d 0 -p ack -e 40 -c 1 -i 41 -a 1 -x {2.0 0.0 20 ------- null}
h -t 1.51196 -s 1 -d 0 -p ack -e 40 -c 1 -i 41 -a 1 -x {2.0 0.0 -1 ------- null}
r -t 1.52332 -s 0 -d 1 -p tcp -e 1040 -c 1 -i 42 -a 1 -x {0.0 2.0 21 ------- null}
+ -t 1.52332 -s 1 -d 2 -p tcp -e 1040 -c 1 -i 42 -a 1 -x {0.0 2.0 21 ------- null}
- -t 1.52332 -s 1 -d 2 -p tcp -e 1040 -c 1 -i 42 -a 1 -x {0.0 2.0 21 ------- null}
h -t 1.52332 -s 1 -d 2 -p tcp -e 1040 -c 1 -i 42 -a 1 -x {0.0 2.0 -1 ------- null}
r -t 1.52728 -s 1 -d 0 -p ack -e 40 -c 1 -i 41 -a 1 -x {2.0 0.0 20 ------- null}
r -t 1.54664 -s 1 -d 2 -p tcp -e 1040 -c 1 -i 42 -a 1 -x {0.0 2.0 21 ------- null}
+ -t 1.54664 -s 2 -d 1 -p ack -e 40 -c 1 -i 43 -a 1 -x {2.0 0.0 21 ------- null}
- -t 1.54664 -s 2 -d 1 -p ack -e 40 -c 1 -i 43 -a 1 -x {2.0 0.0 21 ------- null}
h -t 1.54664 -s 2 -d 1 -p ack -e 40 -c 1 -i 43 -a 1 -x {2.0 0.0 -1 ------- null}
+ -t 1.55 -s 0 -d 1 -p tcp -e 1040 -c 1 -i 44 -a 1 -x {0.0 2.0 22 ------- null}
- -t 1.55 -s 0 -d 1 -p tcp -e 1040 -c 1 -i 44 -a 1 -x {0.0 2.0 22 ------- null}
h -t 1.55 -s 0 -d 1 -p tcp -e 1040 -c 1 -i 44 -a 1 -x {0.0 2.0 -1 ------- null}
r -t 1.56196 -s 2 -d 1 -p ack -e 40 -c 1 -i 43 -a 1 -x {2.0 0.0 21 ------- null}
+ -t 1.56196 -s 1 -d 0 -p ack -e 40 -c 1 -i 43 -a 1 -x {2.0 0.0 21 ------- null}
- -t 1.56196 -s 1 -d 0 -p ack -e 40 -c 1 -i 43 -a 1 -x {2.0 0.0 21 ------- null}
h -t 1.56196 -s 1 -d 0 -p ack -e 40 -c 1 -i 43 -a 1 -x {2.0 0.0 -1 ------- null}
r -t 1.57332 -s 0 -d 1 -p tcp -e 1040 -c 1 -i 44 -a 1 -x {0.0 2.0 22 ------- null}
+ -t 1.57332 -s 1 -d 2 -p tcp -e 1040 -c 1 -i 44 -a 1 -x {0.0 2.0 22 ------- null}
- -t 1.57332 -s 1 -d 2 -p tcp -e 1040 -c 1 -i 44 -a 1 -x {0.0 2.0 22 ------- null}
h -t 1.57332 -s 1 -d 2 -p tcp -e 1040 -c 1 -i 44 -a 1 -x {0.0 2.0 -1 ------- null}
r -t 1.57728 -s 1 -d 0 -p ack -e 40 -c 1 -i 43 -a 1 -x {2.0 0.0 21 ------- null}
r -t 1.59664 -s 1 -d 2 -p tcp -e 1040 -c 1 -i 44 -a 1 -x {0.0 2.0 22 ------- null}
+ -t 1.59664 -s 2 -d 1 -p ack -e 40 -c 1 -i 45 -a 1 -x {2.0 0.0 22 ------- null}