V -t * -v 1.0a5 -a 0
A -t * -n 1 -p 0 -o 0x7fffffff -c 30 -a 1
A -t * -h 1 -m 1073741823 -s 0
c -t * -i 1 -n Blue
c -t * -i 2 -n Red
n -t * -a 4 -s 4 -S UP -v circle -c black -i black
n -t * -a 0 -s 0 -S UP -v circle -c black -i black
n -t * -a 1 -s 1 -S UP -v circle -c black -i black
n -t * -a 2 -s 2 -S UP -v circle -c black -i black
n -t * -a 3 -s 3 -S UP -v circle -c black -i black
X -t * -n 5 -r 0.7Mb -D 20ms -o left
L -t * -s 5 -d 0 -o up
L -t * -s 5 -d 1 -o down
L -t * -s 5 -d 2 -o up
L -t * -s 5 -d 3 -o down
L -t * -s 5 -d 4 -o up
h -t 0.5 -s 0 -d 5 -p tcp -e 40 -c 1 -i 0 -a 1 -x {0.0 2.0 0 ------- null}
+ -t 0.52 -s 0 -d 5 -p tcp -e 40 -c 1 -i 0 -a 1 -x {0.0 2.0 0 ------- null}
- -t 0.52 -s 0 -d 5 -p tcp -e 40 -c 1 -i 0 -a 1 -x {0.0 2.0 0 ------- null}
h -t 0.52 -s 0 -d 5 -p tcp -e 40 -c 1 -i 0 -a 1 -x {0.0 2.0 -1 ------- null}
d -t 0.520004 -s 4 -d 5 -p tcp -e 40 -c 1 -i 0 -a 1 -x {0.0 2.0 0 ------- null}
d -t 0.520004 -s 3 -d 5 -p tcp -e 40 -c 1 -i 0 -a 1 -x {0.0 2.0 0 ------- null}
d -t 0.520004 -s 1 -d 5 -p tcp -e 40 -c 1 -i 0 -a 1 -x {0.0 2.0 0 ------- null}
r -t 0.540004 -s 5 -d 2 -p tcp -e 40 -c 1 -i 0 -a 1 -x {0.0 2.0 0 ------- null}
h -t 0.540004 -s 2 -d 5 -p ack -e 40 -c 1 -i 1 -a 1 -x {2.0 0.0 0 ------- null}
+ -t 0.560004 -s 2 -d 5 -p ack -e 40 -c 1 -i 1 -a 1 -x {2.0 0.0 0 ------- null}
- -t 0.560004 -s 2 -d 5 -p ack -e 40 -c 1 -i 1 -a 1 -x {2.0 0.0 0 ------- null}
h -t 0.560004 -s 2 -d 5 -p ack -e 40 -c 1 -i 1 -a 1 -x {2.0 0.0 -1 ------- null}
d -t 0.560008 -s 4 -d 5 -p ack -e 40 -c 1 -i 1 -a 1 -x {2.0 0.0 0 ------- null}
d -t 0.560008 -s 3 -d 5 -p ack -e 40 -c 1 -i 1 -a 1 -x {2.0 0.0 0 ------- null}
d -t 0.560008 -s 1 -d 5 -p ack -e 40 -c 1 -i 1 -a 1 -x {2.0 0.0 0 ------- null}
r -t 0.580008 -s 5 -d 0 -p ack -e 40 -c 1 -i 1 -a 1 -x {2.0 0.0 0 ------- null}
h -t 0.580008 -s 0 -d 5 -p tcp -e 1040 -c 1 -i 2 -a 1 -x {0.0 2.0 1 ------- null}
h -t 0.580008 -s 0 -d 5 -p tcp -e 1040 -c 1 -i 3 -a 1 -x {0.0 2.0 2 ------- null}
+ -t 0.600008 -s 0 -d 5 -p tcp -e 1040 -c 1 -i 2 -a 1 -x {0.0 2.0 1 ------- null}
- -t 0.600008 -s 0 -d 5 -p tcp -e 1040 -c 1 -i 2 -a 1 -x {0.0 2.0 1 ------- null}
h -t 0.600008 -s 0 -d 5 -p tcp -e 1040 -c 1 -i 2 -a 1 -x {0.0 2.0 -1 ------- null}
+ -t 0.600008 -s 0 -d 5 -p tcp -e 1040 -c 1 -i 3 -a 1 -x {0.0 2.0 2 ------- null}
d -t 0.600012 -s 4 -d 5 -p tcp -e 1040 -c 1 -i 2 -a 1 -x {0.0 2.0 1 ------- null}
d -t 0.600012 -s 3 -d 5 -p tcp -e 1040 -c 1 -i 2 -a 1 -x {0.0 2.0 1 ------- null}
d -t 0.600012 -s 1 -d 5 -p tcp -e 1040 -c 1 -i 2 -a 1 -x {0.0 2.0 1 ------- null}
- -t 0.604424 -s 0 -d 5 -p tcp -e 1040 -c 1 -i 3 -a 1 -x {0.0 2.0 2 ------- null}
h -t 0.604424 -s 0 -d 5 -p tcp -e 1040 -c 1 -i 3 -a 1 -x {0.0 2.0 -1 ------- null}
d -t 0.604428 -s 4 -d 5 -p tcp -e 1040 -c 1 -i 3 -a 1 -x {0.0 2.0 2 ------- null}
d -t 0.604428 -s 3 -d 5 -p tcp -e 1040 -c 1 -i 3 -a 1 -x {0.0 2.0 2 ------- null}
d -t 0.604428 -s 1 -d 5 -p tcp -e 1040 -c 1 -i 3 -a 1 -x {0.0 2.0 2 ------- null}
r -t 0.620012 -s 5 -d 2 -p tcp -e 1040 -c 1 -i 2 -a 1 -x {0.0 2.0 1 ------- null}
h -t 0.620012 -s 2 -d 5 -p ack -e 40 -c 1 -i 4 -a 1 -x {2.0 0.0 1 ------- null}
r -t 0.624428 -s 5 -d 2 -p tcp -e 1040 -c 1 -i 3 -a 1 -x {0.0 2.0 2 ------- null}
h -t 0.624428 -s 2 -d 5 -p ack -e 40 -c 1 -i 5 -a 1 -x {2.0 0.0 2 ------- null}
+ -t 0.640012 -s 2 -d 5 -p ack -e 40 -c 1 -i 4 -a 1 -x {2.0 0.0 1 ------- null}
- -t 0.640012 -s 2 -d 5 -p ack -e 40 -c 1 -i 4 -a 1 -x {2.0 0.0 1 ------- null}
h -t 0.640012 -s 2 -d 5 -p ack -e 40 -c 1 -i 4 -a 1 -x {2.0 0.0 -1 ------- null}
d -t 0.640016 -s 4 -d 5 -p ack -e 40 -c 1 -i 4 -a 1 -x {2.0 0.0 1 ------- null}
d -t 0.640016 -s 3 -d 5 -p ack -e 40 -c 1 -i 4 -a 1 -x {2.0 0.0 1 ------- null}
d -t 0.640016 -s 1 -d 5 -p ack -e 40 -c 1 -i 4 -a 1 -x {2.0 0.0 1 ------- null}
+ -t 0.644428 -s 2 -d 5 -p ack -e 40 -c 1 -i 5 -a 1 -x {2.0 0.0 2 ------- null}
- -t 0.644428 -s 2 -d 5 -p ack -e 40 -c 1 -i 5 -a 1 -x {2.0 0.0 2 ------- null}
h -t 0.644428 -s 2 -d 5 -p ack -e 40 -c 1 -i 5 -a 1 -x {2.0 0.0 -1 ------- null}
d -t 0.644432 -s 4 -d 5 -p ack -e 40 -c 1 -i 5 -a 1 -x {2.0 0.0 2 ------- null}
d -t 0.644432 -s 3 -d 5 -p ack -e 40 -c 1 -i 5 -a 1 -x {2.0 0.0 2 ------- null}
d -t 0.644432 -s 1 -d 5 -p ack -e 40 -c 1 -i 5 -a 1 -x {2.0 0.0 2 ------- null}
r -t 0.660016 -s 5 -d 0 -p ack -e 40 -c 1 -i 4 -a 1 -x {2.0 0.0 1 ------- null}
h -t 0.660016 -s 0 -d 5 -p tcp -e 1040 -c 1 -i 6 -a 1 -x {0.0 2.0 3 ------- null}
h -t 0.660016 -s 0 -d 5 -p tcp -e 1040 -c 1 -i 7 -a 1 -x {0.0 2.0 4 ------- null}
r -t 0.664432 -s 5 -d 0 -p ack -e 40 -c 1 -i 5 -a 1 -x {2.0 0.0 2 ------- null}
+ -t 0.680016 -s 0 -d 5 -p tcp -e 1040 -c 1 -i 6 -a 1 -x {0.0 2.0 3 ------- null}
- -t 0.680016 -s 0 -d 5 -p tcp -e 1040 -c 1 -i 6 -a 1 -x {0.0 2.0 3 ------- null}
h -t 0.680016 -s 0 -d 5 -p tcp -e 1040 -c 1 -i 6 -a 1 -x {0.0 2.0 -1 ------- null}
+ -t 0.680016 -s 0 -d 5 -p tcp -e 1040 -c 1 -i 7 -a 1 -x {0.0 2.0 4 ------- null}
d -t 0.68002 -s 4 -d 5 -p tcp -e 1040 -c 1 -i 6 -a 1 -x {0.0 2.0 3 ------- null}
d -t 0.68002 -s 3 -d 5 -p tcp -e 1040 -c 1 -i 6 -a 1 -x {0.0 2.0 3 ------- null}
d -t 0.68002 -s 1 -d 5 -p tcp -e 1040 -c 1 -i 6 -a 1 -x {0.0 2.0 3 ------- null}
- -t 0.684432 -s 0 -d 5 -p tcp -e 1040 -c 1 -i 7 -a 1 -x {0.0 2.0 4 ------- null}
h -t 0.684432 -s 0 -d 5 -p tcp -e 1040 -c 1 -i 7 -a 1 -x {0.0 2.0 -1 ------- null}
d -t 0.684436 -s 4 -d 5 -p tcp -e 1040 -c 1 -i 7 -a 1 -x {0.0 2.0 4 ------- null}
d -t 0.684436 -s 3 -d 5 -p tcp -e 1040 -c 1 -i 7 -a 1 -x {0.0 2.0 4 ------- null}
d -t 0.684436 -s 1 -d 5 -p tcp -e 1040 -c 1 -i 7 -a 1 -x {0.0 2.0 4 ------- null}
h -t 0.7 -s 0 -d 5 -p tcp -e 1040 -c 1 -i 8 -a 1 -x {0.0 2.0 5 ------- null}
r -t 0.70002 -s 5 -d 2 -p tcp -e 1040 -c 1 -i 6 -a 1 -x {0.0 2.0 3 ------- null}
h -t 0.70002 -s 2 -d 5 -p ack -e 40 -c 1 -i 9 -a 1 -x {2.0 0.0 3 ------- null}
r -t 0.704436 -s 5 -d 2 -p tcp -e 1040 -c 1 -i 7 -a 1 -x {0.0 2.0 4 ------- null}
h -t 0.704436 -s 2 -d 5 -p ack -e 40 -c 1 -i 10 -a 1 -x {2.0 0.0 4 ------- null}
+ -t 0.72 -s 0 -d 5 -p tcp -e 1040 -c 1 -i 8 -a 1 -x {0.0 2.0 5 ------- null}
- -t 0.72 -s 0 -d 5 -p tcp -e 1040 -c 1 -i 8 -a 1 -x {0.0 2.0 5 ------- null}
h -t 0.72 -s 0 -d 5 -p tcp -e 1040 -c 1 -i 8 -a 1 -x {0.0 2.0 -1 ------- null}
d -t 0.720004 -s 4 -d 5 -p tcp -e 1040 -c 1 -i 8 -a 1 -x {0.0 2.0 5 ------- null}
d -t 0.720004 -s 3 -d 5 -p tcp -e 1040 -c 1 -i 8 -a 1 -x {0.0 2.0 5 ------- null}
d -t 0.720004 -s 1 -d 5 -p tcp -e 1040 -c 1 -i 8 -a 1 -x {0.0 2.0 5 ------- null}
+ -t 0.72002 -s 2 -d 5 -p ack -e 40 -c 1 -i 9 -a 1 -x {2.0 0.0 3 ------- null}
- -t 0.72002 -s 2 -d 5 -p ack -e 40 -c 1 -i 9 -a 1 -x {2.0 0.0 3 ------- null}
h -t 0.72002 -s 2 -d 5 -p ack -e 40 -c 1 -i 9 -a 1 -x {2.0 0.0 -1 ------- null}
d -t 0.720024 -s 4 -d 5 -p ack -e 40 -c 1 -i 9 -a 1 -x {2.0 0.0 3 ------- null}
d -t 0.720024 -s 3 -d 5 -p ack -e 40 -c 1 -i 9 -a 1 -x {2.0 0.0 3 ------- null}
d -t 0.720024 -s 1 -d 5 -p ack -e 40 -c 1 -i 9 -a 1 -x {2.0 0.0 3 ------- null}
+ -t 0.724436 -s 2 -d 5 -p ack -e 40 -c 1 -i 10 -a 1 -x {2.0 0.0 4 ------- null}
- -t 0.724436 -s 2 -d 5 -p ack -e 40 -c 1 -i 10 -a 1 -x {2.0 0.0 4 ------- null}
h -t 0.724436 -s 2 -d 5 -p ack -e 40 -c 1 -i 10 -a 1 -x {2.0 0.0 -1 ------- null}
d -t 0.72444 -s 4 -d 5 -p ack -e 40 -c 1 -i 10 -a 1 -x {2.0 0.0 4 ------- null}
d -t 0.72444 -s 3 -d 5 -p ack -e 40 -c 1 -i 10 -a 1 -x {2.0 0.0 4 ------- null}
d -t 0.72444 -s 1 -d 5 -p ack -e 40 -c 1 -i 10 -a 1 -x {2.0 0.0 4 ------- null}
r -t 0.740004 -s 5 -d 2 -p tcp -e 1040 -c 1 -i 8 -a 1 -x {0.0 2.0 5 ------- null}
h -t 0.740004 -s 2 -d 5 -p ack -e 40 -c 1 -i 11 -a 1 -x {2.0 0.0 5 ------- null}
r -t 0.740024 -s 5 -d 0 -p ack -e 40 -c 1 -i 9 -a 1 -x {2.0 0.0 3 ------- null}
r -t 0.74444 -s 5 -d 0 -p ack -e 40 -c 1 -i 10 -a 1 -x {2.0 0.0 4 ------- null}
h -t 0.75 -s 0 -d 5 -p tcp -e 1040 -c 1 -i 12 -a 1 -x {0.0 2.0 6 ------- null}
+ -t 0.760004 -s 2 -d 5 -p ack -e 40 -c 1 -i 11 -a 1 -x {2.0 0.0 5 ------- null}
- -t 0.760004 -s 2 -d 5 -p ack -e 40 -c 1 -i 11 -a 1 -x {2.0 0.0 5 ------- null}
h -t 0.760004 -s 2 -d 5 -p ack -e 40 -c 1 -i 11 -a 1 -x {2.0 0.0 -1 ------- null}
d -t 0.760008 -s 4 -d 5 -p ack -e 40 -c 1 -i 11 -a 1 -x {2.0 0.0 5 ------- null}
d -t 0.760008 -s 3 -d 5 -p ack -e 40 -c 1 -i 11 -a 1 -x {2.0 0.0 5 ------- null}
d -t 0.760008 -s 1 -d 5 -p ack -e 40 -c 1 -i 11 -a 1 -x {2.0 0.0 5 ------- null}
+ -t 0.77 -s 0 -d 5 -p tcp -e 1040 -c 1 -i 12 -a 1 -x {0.0 2.0 6 ------- null}
- -t 0.77 -s 0 -d 5 -p tcp -e 1040 -c 1 -i 12 -a 1 -x {0.0 2.0 6 ------- null}
h -t 0.77 -s 0 -d 5 -p tcp -e 1040 -c 1 -i 12 -a 1 -x {0.0 2.0 -1 ------- null}
d -t 0.770004 -s 4 -d 5 -p tcp -e 1040 -c 1 -i 12 -a 1 -x {0.0 2.0 6 ------- null}
d -t 0.770004 -s 3 -d 5 -p tcp -e 1040 -c 1 -i 12 -a 1 -x {0.0 2.0 6 ------- null}
d -t 0.770004 -s 1 -d 5 -p tcp -e 1040 -c 1 -i 12 -a 1 -x {0.0 2.0 6 ------- null}
r -t 0.780008 -s 5 -d 0 -p ack -e 40 -c 1 -i 11 -a 1 -x {2.0 0.0 5 ------- null}
r -t 0.790004 -s 5 -d 2 -p tcp -e 1040 -c 1 -i 12 -a 1 -x {0.0 2.0 6 ------- null}
h -t 0.790004 -s 2 -d 5 -p ack -e 40 -c 1 -i 13 -a 1 -x {2.0 0.0 6 ------- null}
h -t 0.8 -s 0 -d 5 -p tcp -e 1040 -c 1 -i 14 -a 1 -x {0.0 2.0 7 ------- null}
+ -t 0.810004 -s 2 -d 5 -p ack -e 40 -c 1 -i 13 -a 1 -x {2.0 0.0 6 ------- null}
- -t 0.810004 -s 2 -d 5 -p ack -e 40 -c 1 -i 13 -a 1 -x {2.0 0.0 6 ------- null}
h -t 0.810004 -s 2 -d 5 -p ack -e 40 -c 1 -i 13 -a 1 -x {2.0 0.0 -1 ------- null}
d -t 0.810008 -s 4 -d 5 -p ack -e 40 -c 1 -i 13 -a 1 -x {2.0 0.0 6 ------- null}
d -t 0.810008 -s 3 -d 5 -p ack -e 40 -c 1 -i 13 -a 1 -x {2.0 0.0 6 ------- null}
d -t 0.810008 -s 1 -d 5 -p ack -e 40 -c 1 -i 13 -a 1 -x {2.0 0.0 6 ------- null}
+ -t 0.82 -s 0 -d 5 -p tcp -e 1040 -c 1 -i 14 -a 1 -x {0.0 2.0 7 ------- null}
- -t 0.82 -s 0 -d 5 -p tcp -e 1040 -c 1 -i 14 -a 1 -x {0.0 2.0 7 ------- null}
h -t 0.82 -s 0 -d 5 -p tcp -e 1040 -c 1 -i 14 -a 1 -x {0.0 2.0 -1 ------- null}
d -t 0.820004 -s 4 -d 5 -p tcp -e 1040 -c 1 -i 14 -a 1 -x {0.0 2.0 7 ------- null}
d -t 0.820004 -s 3 -d 5 -p tcp -e 1040 -c 1 -i 14 -a 1 -x {0.0 2.0 7 ------- null}
d -t 0.820004 -s 1 -d 5 -p tcp -e 1040 -c 1 -i 14 -a 1 -x {0.0 2.0 7 ------- null}
r -t 0.830008 -s 5 -d 0 -p ack -e 40 -c 1 -i 13 -a 1 -x {2.0 0.0 6 ------- null}
r -t 0.840004 -s 5 -d 2 -p tcp -e 1040 -c 1 -i 14 -a 1 -x {0.0 2.0 7 ------- null}
h -t 0.840004 -s 2 -d 5 -p ack -e 40 -c 1 -i 15 -a 1 -x {2.0 0.0 7 ------- null}
h -t 0.85 -s 0 -d 5 -p tcp -e 1040 -c 1 -i 16 -a 1 -x {0.0 2.0 8 ------- null}
+ -t 0.860004 -s 2 -d 5 -p ack -e 40 -c 1 -i 15 -a 1 -x {2.0 0.0 7 ------- null}
- -t 0.860004 -s 2 -d 5 -p ack -e 40 -c 1 -i 15 -a 1 -x {2.0 0.0 7 ------- null}
h -t 0.860004 -s 2 -d 5 -p ack -e 40 -c 1 -i 15 -a 1 -x {2.0 0.0 -1 ------- null}
d -t 0.860008 -s 4 -d 5 -p ack -e 40 -c 1 -i 15 -a 1 -x {2.0 0.0 7 ------- null}
d -t 0.860008 -s 3 -d 5 -p ack -e 40 -c 1 -i 15 -a 1 -x {2.0 0.0 7 ------- null}
d -t 0.860008 -s 1 -d 5 -p ack -e 40 -c 1 -i 15 -a 1 -x {2.0 0.0 7 ------- null}
+ -t 0.87 -s 0 -d 5 -p tcp -e 1040 -c 1 -i 16 -a 1 -x {0.0 2.0 8 ------- null}
- -t 0.87 -s 0 -d 5 -p tcp -e 1040 -c 1 -i 16 -a 1 -x {0.0 2.0 8 ------- null}
h -t 0.87 -s 0 -d 5 -p tcp -e 1040 -c 1 -i 16 -a 1 -x {0.0 2.0 -1 ------- null}
d -t 0.870004 -s 4 -d 5 -p tcp -e 1040 -c 1 -i 16 -a 1 -x {0.0 2.0 8 ------- null}
d -t 0.870004 -s 3 -d 5 -p tcp -e 1040 -c 1 -i 16 -a 1 -x {0.0 2.0 8 ------- null}
d -t 0.870004 -s 1 -d 5 -p tcp -e 1040 -c 1 -i 16 -a 1 -x {0.0 2.0 8 ------- null}
r -t 0.880008 -s 5 -d 0 -p ack -e 40 -c 1 -i 15 -a 1 -x {2.0 0.0 7 ------- null}
r -t 0.890004 -s 5 -d 2 -p tcp -e 1040 -c 1 -i 16 -a 1 -x {0.0 2.0 8 ------- null}
h -t 0.890004 -s 2 -d 5 -p ack -e 40 -c 1 -i 17 -a 1 -x {2.0 0.0 8 ------- null}
h -t 0.9 -s 0 -d 5 -p tcp -e 1040 -c 1 -i 18 -a 1 -x {0.0 2.0 9 ------- null}
+ -t 0.910004 -s 2 -d 5 -p ack -e 40 -c 1 -i 17 -a 1 -x {2.0 0.0 8 ------- null}
- -t 0.910004 -s 2 -d 5 -p ack -e 40 -c 1 -i 17 -a 1 -x {2.0 0.0 8 ------- null}
h -t 0.910004 -s 2 -d 5 -p ack -e 40 -c 1 -i 17 -a 1 -x {2.0 0.0 -1 ------- null}
d -t 0.910008 -s 4 -d 5 -p ack -e 40 -c 1 -i 17 -a 1 -x {2.0 0.0 8 ------- null}
d -t 0.910008 -s 3 -d 5 -p ack -e 40 -c 1 -i 17 -a 1 -x {2.0 0.0 8 ------- null}
d -t 0.910008 -s 1 -d 5 -p ack -e 40 -c 1 -i 17 -a 1 -x {2.0 0.0 8 ------- null}
+ -t 0.92 -s 0 -d 5 -p tcp -e 1040 -c 1 -i 18 -a 1 -x {0.0 2.0 9 ------- null}
- -t 0.92 -s 0 -d 5 -p tcp -e 1040 -c 1 -i 18 -a 1 -x {0.0 2.0 9 ------- null}
h -t 0.92 -s 0 -d 5 -p tcp -e 1040 -c 1 -i 18 -a 1 -x {0.0 2.0 -1 ------- null}
d -t 0.920004 -s 4 -d 5 -p tcp -e 1040 -c 1 -i 18 -a 1 -x {0.0 2.0 9 ------- null}
d -t 0.920004 -s 3 -d 5 -p tcp -e 1040 -c 1 -i 18 -a 1 -x {0.0 2.0 9 ------- null}
d -t 0.920004 -s 1 -d 5 -p tcp -e 1040 -c 1 -i 18 -a 1 -x {0.0 2.0 9 ------- null}
r -t 0.930008 -s 5 -d 0 -p ack -e 40 -c 1 -i 17 -a 1 -x {2.0 0.0 8 ------- null}
r -t 0.940004 -s 5 -d 2 -p tcp -e 1040 -c 1 -i 18 -a 1 -x {0.0 2.0 9 ------- null}
h -t 0.940004 -s 2 -d 5 -p ack -e 40 -c 1 -i 19 -a 1 -x {2.0 0.0 9 ------- null}
h -t 0.95 -s 0 -d 5 -p tcp -e 1040 -c 1 -i 20 -a 1 -x {0.0 2.0 10 ------- null}
+ -t 0.960004 -s 2 -d 5 -p ack -e 40 -c 1 -i 19 -a 1 -x {2.0 0.0 9 ------- null}
- -t 0.960004 -s 2 -d 5 -p ack -e 40 -c 1 -i 19 -a 1 -x {2.0 0.0 9 ------- null}
h -t 0.960004 -s 2 -d 5 -p ack -e 40 -c 1 -i 19 -a 1 -x {2.0 0.0 -1 ------- null}
d -t 0.960008 -s 4 -d 5 -p ack -e 40 -c 1 -i 19 -a 1 -x {2.0 0.0 9 ------- null}
d -t 0.960008 -s 3 -d 5 -p ack -e 40 -c 1 -i 19 -a 1 -x {2.0 0.0 9 ------- null}
d -t 0.960008 -s 1 -d 5 -p ack -e 40 -c 1 -i 19 -a 1 -x {2.0 0.0 9 ------- null}
+ -t 0.97 -s 0 -d 5 -p tcp -e 1040 -c 1 -i 20 -a 1 -x {0.0 2.0 10 ------- null}
- -t 0.97 -s 0 -d 5 -p tcp -e 1040 -c 1 -i 20 -a 1 -x {0.0 2.0 10 ------- null}
h -t 0.97 -s 0 -d 5 -p tcp -e 1040 -c 1 -i 20 -a 1 -x {0.0 2.0 -1 ------- null}
d -t 0.970004 -s 4 -d 5 -p tcp -e 1040 -c 1 -i 20 -a 1 -x {0.0 2.0 10 ------- null}
d -t 0.970004 -s 3 -d 5 -p tcp -e 1040 -c 1 -i 20 -a 1 -x {0.0 2.0 10 ------- null}
d -t 0.970004 -s 1 -d 5 -p tcp -e 1040 -c 1 -i 20 -a 1 -x {0.0 2.0 10 ------- null}
r -t 0.980008 -s 5 -d 0 -p ack -e 40 -c 1 -i 19 -a 1 -x {2.0 0.0 9 ------- null}
r -t 0.990004 -s 5 -d 2 -p tcp -e 1040 -c 1 -i 20 -a 1 -x {0.0 2.0 10 ------- null}
h -t 0.990004 -s 2 -d 5 -p ack -e 40 -c 1 -i 21 -a 1 -x {2.0 0.0 10 ------- null}
h -t 1 -s 0 -d 5 -p tcp -e 1040 -c 1 -i 22 -a 1 -x {0.0 2.0 11 ------- null}
+ -t 1.010004 -s 2 -d 5 -p ack -e 40 -c 1 -i 21 -a 1 -x {2.0 0.0 10 ------- null}
- -t 1.010004 -s 2 -d 5 -p ack -e 40 -c 1 -i 21 -a 1 -x {2.0 0.0 10 ------- null}
h -t 1.010004 -s 2 -d 5 -p ack -e 40 -c 1 -i 21 -a 1 -x {2.0 0.0 -1 ------- null}
d -t 1.010008 -s 4 -d 5 -p ack -e 40 -c 1 -i 21 -a 1 -x {2.0 0.0 10 ------- null}
d -t 1.010008 -s 3 -d 5 -p ack -e 40 -c 1 -i 21 -a 1 -x {2.0 0.0 10 ------- null}
d -t 1.010008 -s 1 -d 5 -p ack -e 40 -c 1 -i 21 -a 1 -x {2.0 0.0 10 ------- null}
+ -t 1.02 -s 0 -d 5 -p tcp -e 1040 -c 1 -i 22 -a 1 -x {0.0 2.0 11 ------- null}
- -t 1.02 -s 0 -d 5 -p tcp -e 1040 -c 1 -i 22 -a 1 -x {0.0 2.0 11 ------- null}
h -t 1.02 -s 0 -d 5 -p tcp -e 1040 -c 1 -i 22 -a 1 -x {0.0 2.0 -1 ------- null}
d -t 1.020004 -s 4 -d 5 -p tcp -e 1040 -c 1 -i 22 -a 1 -x {0.0 2.0 11 ------- null}
d -t 1.020004 -s 3 -d 5 -p tcp -e 1040 -c 1 -i 22 -a 1 -x {0.0 2.0 11 ------- null}
d -t 1.020004 -s 1 -d 5 -p tcp -e 1040 -c 1 -i 22 -a 1 -x {0.0 2.0 11 ------- null}
r -t 1.030008 -s 5 -d 0 -p ack -e 40 -c 1 -i 21 -a 1 -x {2.0 0.0 10 ------- null}
r -t 1.040004 -s 5 -d 2 -p tcp -e 1040 -c 1 -i 22 -a 1 -x {0.0 2.0 11 ------- null}
h -t 1.040004 -s 2 -d 5 -p ack -e 40 -c 1 -i 23 -a 1 -x {2.0 0.0 11 ------- null}
h -t 1.05 -s 0 -d 5 -p tcp -e 1040 -c 1 -i 24 -a 1 -x {0.0 2.0 12 ------- null}
+ -t 1.060004 -s 2 -d 5 -p ack -e 40 -c 1 -i 23 -a 1 -x {2.0 0.0 11 ------- null}
- -t 1.060004 -s 2 -d 5 -p ack -e 40 -c 1 -i 23 -a 1 -x {2.0 0.0 11 ------- null}
h -t 1.060004 -s 2 -d 5 -p ack -e 40 -c 1 -i 23 -a 1 -x {2.0 0.0 -1 ------- null}
d -t 1.060008 -s 4 -d 5 -p ack -e 40 -c 1 -i 23 -a 1 -x {2.0 0.0 11 ------- null}
d -t 1.060008 -s 3 -d 5 -p ack -e 40 -c 1 -i 23 -a 1 -x {2.0 0.0 11 ------- null}
d -t 1.060008 -s 1 -d 5 -p ack -e 40 -c 1 -i 23 -a 1 -x {2.0 0.0 11 ------- null}
+ -t 1.07 -s 0 -d 5 -p tcp -e 1040 -c 1 -i 24 -a 1 -x {0.0 2.0 12 ------- null}
- -t 1.07 -s 0 -d 5 -p tcp -e 1040 -c 1 -i 24 -a 1 -x {0.0 2.0 12 ------- null}
h -t 1.07 -s 0 -d 5 -p tcp -e 1040 -c 1 -i 24 -a 1 -x {0.0 2.0 -1 ------- null}
d -t 1.070004 -s 4 -d 5 -p tcp -e 1040 -c 1 -i 24 -a 1 -x {0.0 2.0 12 ------- null}
d -t 1.070004 -s 3 -d 5 -p tcp -e 1040 -c 1 -i 24 -a 1 -x {0.0 2.0 12 ------- null}
d -t 1.070004 -s 1 -d 5 -p tcp -e 1040 -c 1 -i 24 -a 1 -x {0.0 2.0 12 ------- null}
r -t 1.080008 -s 5 -d 0 -p ack -e 40 -c 1 -i 23 -a 1 -x {2.0 0.0 11 ------- null}
r -t 1.090004 -s 5 -d 2 -p tcp -e 1040 -c 1 -i 24 -a 1 -x {0.0 2.0 12 ------- null}
h -t 1.090004 -s 2 -d 5 -p ack -e 40 -c 1 -i 25 -a 1 -x {2.0 0.0 12 ------- null}
h -t 1.1 -s 0 -d 5 -p tcp -e 1040 -c 1 -i 26 -a 1 -x {0.0 2.0 13 ------- null}
+ -t 1.110004 -s 2 -d 5 -p ack -e 40 -c 1 -i 25 -a 1 -x {2.0 0.0 12 ------- null}
- -t 1.110004 -s 2 -d 5 -p ack -e 40 -c 1 -i 25 -a 1 -x {2.0 0.0 12 ------- null}
h -t 1.110004 -s 2 -d 5 -p ack -e 40 -c 1 -i 25 -a 1 -x {2.0 0.0 -1 ------- null}
d -t 1.110008 -s 4 -d 5 -p ack -e 40 -c 1 -i 25 -a 1 -x {2.0 0.0 12 ------- null}
d -t 1.110008 -s 3 -d 5 -p ack -e 40 -c 1 -i 25 -a 1 -x {2.0 0.0 12 ------- null}
d -t 1.110008 -s 1 -d 5 -p ack -e 40 -c 1 -i 25 -a 1 -x {2.0 0.0 12 ------- null}
+ -t 1.12 -s 0 -d 5 -p tcp -e 1040 -c 1 -i 26 -a 1 -x {0.0 2.0 13 ------- null}
- -t 1.12 -s 0 -d 5 -p tcp -e 1040 -c 1 -i 26 -a 1 -x {0.0 2.0 13 ------- null}
h -t 1.12 -s 0 -d 5 -p tcp -e 1040 -c 1 -i 26 -a 1 -x {0.0 2.0 -1 ------- null}
d -t 1.120004 -s 4 -d 5 -p tcp -e 1040 -c 1 -i 26 -a 1 -x {0.0 2.0 13 ------- null}
d -t 1.120004 -s 3 -d 5 -p tcp -e 1040 -c 1 -i 26 -a 1 -x {0.0 2.0 13 ------- null}
d -t 1.120004 -s 1 -d 5 -p tcp -e 1040 -c 1 -i 26 -a 1 -x {0.0 2.0 13 ------- null}
r -t 1.130008 -s 5 -d 0 -p ack -e 40 -c 1 -i 25 -a 1 -x {2.0 0.0 12 ------- null}
r -t 1.140004 -s 5 -d 2 -p tcp -e 1040 -c 1 -i 26 -a 1 -x {0.0 2.0 13 ------- null}
h -t 1.140004 -s 2 -d 5 -p ack -e 40 -c 1 -i 27 -a 1 -x {2.0 0.0 13 ------- null}
h -t 1.15 -s 0 -d 5 -p tcp -e 1040 -c 1 -i 28 -a 1 -x {0.0 2.0 14 ------- null}
+ -t 1.160004 -s 2 -d 5 -p ack -e 40 -c 1 -i 27 -a 1 -x {2.0 0.0 13 ------- null}
- -t 1.160004 -s 2 -d 5 -p ack -e 40 -c 1 -i 27 -a 1 -x {2.0 0.0 13 ------- null}
h -t 1.160004 -s 2 -d 5 -p ack -e 40 -c 1 -i 27 -a 1 -x {2.0 0.0 -1 ------- null}
d -t 1.160008 -s 4 -d 5 -p ack -e 40 -c 1 -i 27 -a 1 -x {2.0 0.0 13 ------- null}
d -t 1.160008 -s 3 -d 5 -p ack -e 40 -c 1 -i 27 -a 1 -x {2.0 0.0 13 ------- null}
d -t 1.160008 -s 1 -d 5 -p ack -e 40 -c 1 -i 27 -a 1 -x {2.0 0.0 13 ------- null}
+ -t 1.17 -s 0 -d 5 -p tcp -e 1040 -c 1 -i 28 -a 1 -x {0.0 2.0 14 ------- null}
- -t 1.17 -s 0 -d 5 -p tcp -e 1040 -c 1 -i 28 -a 1 -x {0.0 2.0 14 ------- null}
h -t 1.17 -s 0 -d 5 -p tcp -e 1040 -c 1 -i 28 -a 1 -x {0.0 2.0 -1 ------- null}
d -t 1.170004 -s 4 -d 5 -p tcp -e 1040 -c 1 -i 28 -a 1 -x {0.0 2.0 14 ------- null}
d -t 1.170004 -s 3 -d 5 -p tcp -e 1040 -c 1 -i 28 -a 1 -x {0.0 2.0 14 ------- null}
d -t 1.170004 -s 1 -d 5 -p tcp -e 1040 -c 1 -i 28 -a 1 -x {0.0 2.0 14 ------- null}
r -t 1.180008 -s 5 -d 0 -p ack -e 40 -c 1 -i 27 -a 1 -x {2.0 0.0 13 ------- null}
r -t 1.190004 -s 5 -d 2 -p tcp -e 1040 -c 1 -i 28 -a 1 -x {0.0 2.0 14 ------- null}
h -t 1.190004 -s 2 -d 5 -p ack -e 40 -c 1 -i 29 -a 1 -x {2.0 0.0 14 ------- null}
h -t 1.2 -s 0 -d 5 -p tcp -e 1040 -c 1 -i 30 -a 1 -x {0.0 2.0 15 ------- null}
+ -t 1.210004 -s 2 -d 5 -p ack -e 40 -c 1 -i 29 -a 1 -x {2.0 0.0 14 ------- null}
- -t 1.210004 -s 2 -d 5 -p ack -e 40 -c 1 -i 29 -a 1 -x {2.0 0.0 14 ------- null}
h -t 1.210004 -s 2 -d 5 -p ack -e 40 -c 1 -i 29 -a 1 -x {2.0 0.0 -1 ------- null}
d -t 1.210008 -s 4 -d 5 -p ack -e 40 -c 1 -i 29 -a 1 -x {2.0 0.0 14 ------- null}
d -t 1.210008 -s 3 -d 5 -p ack -e 40 -c 1 -i 29 -a 1 -x {2.0 0.0 14 ------- null}
d -t 1.210008 -s 1 -d 5 -p ack -e 40 -c 1 -i 29 -a 1 -x {2.0 0.0 14 ------- null}
+ -t 1.22 -s 0 -d 5 -p tcp -e 1040 -c 1 -i 30 -a 1 -x {0.0 2.0 15 ------- null}
- -t 1.22 -s 0 -d 5 -p tcp -e 1040 -c 1 -i 30 -a 1 -x {0.0 2.0 15 ------- null}
h -t 1.22 -s 0 -d 5 -p tcp -e 1040 -c 1 -i 30 -a 1 -x {0.0 2.0 -1 ------- null}
d -t 1.220004 -s 4 -d 5 -p tcp -e 1040 -c 1 -i 30 -a 1 -x {0.0 2.0 15 ------- null}
d -t 1.220004 -s 3 -d 5 -p tcp -e 1040 -c 1 -i 30 -a 1 -x {0.0 2.0 15 ------- null}
d -t 1.220004 -s 1 -d 5 -p tcp -e 1040 -c 1 -i 30 -a 1 -x {0.0 2.0 15 ------- null}
r -t 1.230008 -s 5 -d 0 -p ack -e 40 -c 1 -i 29 -a 1 -x {2.0 0.0 14 ------- null}
r -t 1.240004 -s 5 -d 2 -p tcp -e 1040 -c 1 -i 30 -a 1 -x {0.0 2.0 15 ------- null}
h -t 1.240004 -s 2 -d 5 -p ack -e 40 -c 1 -i 31 -a 1 -x {2.0 0.0 15 ------- null}
h -t 1.25 -s 0 -d 5 -p tcp -e 1040 -c 1 -i 32 -a 1 -x {0.0 2.0 16 ------- null}
+ -t 1.260004 -s 2 -d 5 -p ack -e 40 -c 1 -i 31 -a 1 -x {2.0 0.0 15 ------- null}
- -t 1.260004 -s 2 -d 5 -p ack -e 40 -c 1 -i 31 -a 1 -x {2.0 0.0 15 ------- null}
h -t 1.260004 -s 2 -d 5 -p ack -e 40 -c 1 -i 31 -a 1 -x {2.0 0.0 -1 ------- null}
d -t 1.260008 -s 4 -d 5 -p ack -e 40 -c 1 -i 31 -a 1 -x {2.0 0.0 15 ------- null}
d -t 1.260008 -s 3 -d 5 -p ack -e 40 -c 1 -i 31 -a 1 -x {2.0 0.0 15 ------- null}
d -t 1.260008 -s 1 -d 5 -p ack -e 40 -c 1 -i 31 -a 1 -x {2.0 0.0 15 ------- null}
+ -t 1.27 -s 0 -d 5 -p tcp -e 1040 -c 1 -i 32 -a 1 -x {0.0 2.0 16 ------- null}
- -t 1.27 -s 0 -d 5 -p tcp -e 1040 -c 1 -i 32 -a 1 -x {0.0 2.0 16 ------- null}
h -t 1.27 -s 0 -d 5 -p tcp -e 1040 -c 1 -i 32 -a 1 -x {0.0 2.0 -1 ------- null}
d -t 1.270004 -s 4 -d 5 -p tcp -e 1040 -c 1 -i 32 -a 1 -x {0.0 2.0 16 ------- null}
d -t 1.270004 -s 3 -d 5 -p tcp -e 1040 -c 1 -i 32 -a 1 -x {0.0 2.0 16 ------- null}
d -t 1.270004 -s 1 -d 5 -p tcp -e 1040 -c 1 -i 32 -a 1 -x {0.0 2.0 16 ------- null}
r -t 1.280008 -s 5 -d 0 -p ack -e 40 -c 1 -i 31 -a 1 -x {2.0 0.0 15 ------- null}
r -t 1.290004 -s 5 -d 2 -p tcp -e 1040 -c 1 -i 32 -a 1 -x {0.0 2.0 16 ------- null}
h -t 1.290004 -s 2 -d 5 -p ack -e 40 -c 1 -i 33 -a 1 -x {2.0 0.0 16 ------- null}
h -t 1.3 -s 0 -d 5 -p tcp -e 1040 -c 1 -i 34 -a 1 -x {0.0 2.0 17 ------- null}
+ -t 1.310004 -s 2 -d 5 -p ack -e 40 -c 1 -i 33 -a 1 -x {2.0 0.0 16 ------- null}
- -t 1.310004 -s 2 -d 5 -p ack -e 40 -c 1 -i 33 -a 1 -x {2.0 0.0 16 ------- null}
h -t 1.310004 -s 2 -d 5 -p ack -e 40 -c 1 -i 33 -a 1 -x {2.0 0.0 -1 ------- null}
d -t 1.310008 -s 4 -d 5 -p ack -e 40 -c 1 -i 33 -a 1 -x {2.0 0.0 16 ------- null}
d -t 1.310008 -s 3 -d 5 -p ack -e 40 -c 1 -i 33 -a 1 -x {2.0 0.0 16 ------- null}
d -t 1.310008 -s 1 -d 5 -p ack -e 40 -c 1 -i 33 -a 1 -x {2.0 0.0 16 ------- null}
+ -t 1.32 -s 0 -d 5 -p tcp -e 1040 -c 1 -i 34 -a 1 -x {0.0 2.0 17 ------- null}
- -t 1.32 -s 0 -d 5 -p tcp -e 1040 -c 1 -i 34 -a 1 -x {0.0 2.0 17 ------- null}
h -t 1.32 -s 0 -d 5 -p tcp -e 1040 -c 1 -i 34 -a 1 -x {0.0 2.0 -1 ------- null}
d -t 1.320004 -s 4 -d 5 -p tcp -e 1040 -c 1 -i 34 -a 1 -x {0.0 2.0 17 ------- null}
d -t 1.320004 -s 3 -d 5 -p tcp -e 1040 -c 1 -i 34 -a 1 -x {0.0 2.0 17 ------- null}
d -t 1.320004 -s 1 -d 5 -p tcp -e 1040 -c 1 -i 34 -a 1 -x {0.0 2.0 17 ------- null}
r -t 1.330008 -s 5 -d 0 -p ack -e 40 -c 1 -i 33 -a 1 -x {2.0 0.0 16 ------- null}
r -t 1.340004 -s 5 -d 2 -p tcp -e 1040 -c 1 -i 34 -a 1 -x {0.0 2.0 17 ------- null}
h -t 1.340004 -s 2 -d 5 -p ack -e 40 -c 1 -i 35 -a 1 -x {2.0 0.0 17 ------- null}
h -t 1.35 -s 0 -d 5 -p tcp -e 1040 -c 1 -i 36 -a 1 -x {0.0 2.0 18 ------- null}
+ -t 1.360004 -s 2 -d 5 -p ack -e 40 -c 1 -i 35 -a 1 -x {2.0 0.0 17 ------- null}
- -t 1.360004 -s 2 -d 5 -p ack -e 40 -c 1 -i 35 -a 1 -x {2.0 0.0 17 ------- null}
h -t 1.360004 -s 2 -d 5 -p ack -e 40 -c 1 -i 35 -a 1 -x {2.0 0.0 -1 ------- null}
d -t 1.360008 -s 4 -d 5 -p ack -e 40 -c 1 -i 35 -a 1 -x {2.0 0.0 17 ------- null}
d -t 1.360008 -s 3 -d 5 -p ack -e 40 -c 1 -i 35 -a 1 -x {2.0 0.0 17 ------- null}
d -t 1.360008 -s 1 -d 5 -p ack -e 40 -c 1 -i 35 -a 1 -x {2.0 0.0 17 ------- null}
+ -t 1.37 -s 0 -d 5 -p tcp -e 1040 -c 1 -i 36 -a 1 -x {0.0 2.0 18 ------- null}
- -t 1.37 -s 0 -d 5 -p tcp -e 1040 -c 1 -i 36 -a 1 -x {0.0 2.0 18 ------- null}
h -t 1.37 -s 0 -d 5 -p tcp -e 1040 -c 1 -i 36 -a 1 -x {0.0 2.0 -1 ------- null}
d -t 1.370004 -s 4 -d 5 -p tcp -e 1040 -c 1 -i 36 -a 1 -x {0.0 2.0 18 ------- null}
d -t 1.370004 -s 3 -d 5 -p tcp -e 1040 -c 1 -i 36 -a 1 -x {0.0 2.0 18 ------- null}
d -t 1.370004 -s 1 -d 5 -p tcp -e 1040 -c 1 -i 36 -a 1 -x {0.0 2.0 18 ------- null}
r -t 1.380008 -s 5 -d 0 -p ack -e 40 -c 1 -i 35 -a 1 -x {2.0 0.0 17 ------- null}
r -t 1.390004 -s 5 -d 2 -p tcp -e 1040 -c 1 -i 36 -a 1 -x {0.0 2.0 18 ------- null}
h -t 1.390004 -s 2 -d 5 -p ack -e 40 -c 1 -i 37 -a 1 -x {2.0 0.0 18 ------- null}
h -t 1.4 -s 0 -d 5 -p tcp -e 1040 -c 1 -i 38 -a 1 -x {0.0 2.0 19 ------- null}
+ -t 1.410004 -s 2 -d 5 -p ack -e 40 -c 1 -i 37 -a 1 -x {2.0 0.0 18 ------- null}
- -t 1.410004 -s 2 -d 5 -p ack -e 40 -c 1 -i 37 -a 1 -x {2.0 0.0 18 ------- null}
h -t 1.410004 -s 2 -d 5 -p ack -e 40 -c 1 -i 37 -a 1 -x {2.0 0.0 -1 ------- null}
d -t 1.410008 -s 4 -d 5 -p ack -e 40 -c 1 -i 37 -a 1 -x {2.0 0.0 18 ------- null}
d -t 1.410008 -s 3 -d 5 -p ack -e 40 -c 1 -i 37 -a 1 -x {2.0 0.0 18 ------- null}
d -t 1.410008 -s 1 -d 5 -p ack -e 40 -c 1 -i 37 -a 1 -x {2.0 0.0 18 ------- null}
+ -t 1.42 -s 0 -d 5 -p tcp -e 1040 -c 1 -i 38 -a 1 -x {0.0 2.0 19 ------- null}
- -t 1.42 -s 0 -d 5 -p tcp -e 1040 -c 1 -i 38 -a 1 -x {0.0 2.0 19 ------- null}
h -t 1.42 -s 0 -d 5 -p tcp -e 1040 -c 1 -i 38 -a 1 -x {0.0 2.0 -1 ------- null}
d -t 1.420004 -s 4 -d 5 -p tcp -e 1040 -c 1 -i 38 -a 1 -x {0.0 2.0 19 ------- null}
d -t 1.420004 -s 3 -d 5 -p tcp -e 1040 -c 1 -i 38 -a 1 -x {0.0 2.0 19 ------- null}
d -t 1.420004 -s 1 -d 5 -p tcp -e 1040 -c 1 -i 38 -a 1 -x {0.0 2.0 19 ------- null}
r -t 1.430008 -s 5 -d 0 -p ack -e 40 -c 1 -i 37 -a 1 -x {2.0 0.0 18 ------- null}
r -t 1.440004 -s 5 -d 2 -p tcp -e 1040 -c 1 -i 38 -a 1 -x {0.0 2.0 19 ------- null}
h -t 1.440004 -s 2 -d 5 -p ack -e 40 -c 1 -i 39 -a 1 -x {2.0 0.0 19 ------- null}
h -t 1.45 -s 0 -d 5 -p tcp -e 1040 -c 1 -i 40 -a 1 -x {0.0 2.0 20 ------- null}
+ -t 1.460004 -s 2 -d 5 -p ack -e 40 -c 1 -i 39 -a 1 -x {2.0 0.0 19 ------- null}
- -t 1.460004 -s 2 -d 5 -p ack -e 40 -c 1 -i 39 -a 1 -x {2.0 0.0 19 ------- null}
h -t 1.460004 -s 2 -d 5 -p ack -e 40 -c 1 -i 39 -a 1 -x {2.0 0.0 -1 ------- null}
d -t 1.460008 -s 4 -d 5 -p ack -e 40 -c 1 -i 39 -a 1 -x {2.0 0.0 19 ------- null}
d -t 1.460008 -s 3 -d 5 -p ack -e 40 -c 1 -i 39 -a 1 -x {2.0 0.0 19 ------- null}
d -t 1.460008 -s 1 -d 5 -p ack -e 40 -c 1 -i 39 -a 1 -x {2.0 0.0 19 ------- null}
+ -t 1.47 -s 0 -d 5 -p tcp -e 1040 -c 1 -i 40 -a 1 -x {0.0 2.0 20 ------- null}
- -t 1.47 -s 0 -d 5 -p tcp -e 1040 -c 1 -i 40 -a 1 -x {0.0 2.0 20 ------- null}
h -t 1.47 -s 0 -d 5 -p tcp -e 1040 -c 1 -i 40 -a 1 -x {0.0 2.0 -1 ------- null}
d -t 1.470004 -s 4 -d 5 -p tcp -e 1040 -c 1 -i 40 -a 1 -x {0.0 2.0 20 ------- null}
d -t 1.470004 -s 3 -d 5 -p tcp -e 1040 -c 1 -i 40 -a 1 -x {0.0 2.0 20 ------- null}
d -t 1.470004 -s 1 -d 5 -p tcp -e 1040 -c 1 -i 40 -a 1 -x {0.0 2.0 20 ------- null}
r -t 1.480008 -s 5 -d 0 -p ack -e 40 -c 1 -i 39 -a 1 -x {2.0 0.0 19 ------- null}
r -t 1.490004 -s 5 -d 2 -p tcp -e 1040 -c 1 -i 40 -a 1 -x {0.0 2.0 20 ------- null}
h -t 1.490004 -s 2 -d 5 -p ack -e 40 -c 1 -i 41 -a 1 -x {2.0 0.0 20 ------- null}
h -t 1.5 -s 0 -d 5 -p tcp -e 1040 -c 1 -i 42 -a 1 -x {0.0 2.0 21 ------- null}
+ -t 1.510004 -s 2 -d 5 -p ack -e 40 -c 1 -i 41 -a 1 -x {2.0 0.0 20 ------- null}
- -t 1.510004 -s 2 -d 5 -p ack -e 40 -c 1 -i 41 -a 1 -x {2.0 0.0 20 ------- null}
h -t 1.510004 -s 2 -d 5 -p ack -e 40 -c 1 -i 41 -a 1 -x {2.0 0.0 -1 ------- null}
d -t 1.510008 -s 4 -d 5 -p ack -e 40 -c 1 -i 41 -a 1 -x {2.0 0.0 20 ------- null}
d -t 1.510008 -s 3 -d 5 -p ack -e 40 -c 1 -i 41 -a 1 -x {2.0 0.0 20 ------- null}
d -t 1.510008 -s 1 -d 5 -p ack -e 40 -c 1 -i 41 -a 1 -x {2.0 0.0 20 ------- null}
+ -t 1.52 -s 0 -d 5 -p tcp -e 1040 -c 1 -i 42 -a 1 -x {0.0 2.0 21 ------- null}
- -t 1.52 -s 0 -d 5 -p tcp -e 1040 -c 1 -i 42 -a 1 -x {0.0 2.0 21 ------- null}
h -t 1.52 -s 0 -d 5 -p tcp -e 1040 -c 1 -i 42 -a 1 -x {0.0 2.0 -1 ------- null}
d -t 1.520004 -s 4 -d 5 -p tcp -e 1040 -c 1 -i 42 -a 1 -x {0.0 2.0 21 ------- null}
d -t 1.520004 -s 3 -d 5 -p tcp -e 1040 -c 1 -i 42 -a 1 -x {0.0 2.0 21 ------- null}
d -t 1.520004 -s 1 -d 5 -p tcp -e 1040 -c 1 -i 42 -a 1 -x {0.0 2.0 21 ------- null}
r -t 1.530008 -s 5 -d 0 -p ack -e 40 -c 1 -i 41 -a 1 -x {2.0 0.0 20 ------- null}
r -t 1.540004 -s 5 -d 2 -p tcp -e 1040 -c 1 -i 42 -a 1 -x {0.0 2.0 21 ------- null}
h -t 1.540004 -s 2 -d 5 -p ack -e 40 -c 1 -i 43 -a 1 -x {2.0 0.0 21 ------- null}
h -t 1.55 -s 0 -d 5 -p tcp -e 1040 -c 1 -i 44 -a 1 -x {0.0 2.0 22 ------- null}
+ -t 1.560004 -s 2 -d 5 -p ack -e 40 -c 1 -i 43 -a 1 -x {2.0 0.0 21 ------- null}
- -t 1.560004 -s 2 -d 5 -p ack -e 40 -c 1 -i 43 -a 1 -x {2.0 0.0 21 ------- null}
h -t 1.560004 -s 2 -d 5 -p ack -e 40 -c 1 -i 43 -a 1 -x {2.0 0.0 -1 ------- null}
d -t 1.560008 -s 4 -d 5 -p ack -e 40 -c 1 -i 43 -a 1 -x {2.0 0.0 21 ------- null}
d -t 1.560008 -s 3 -d 5 -p ack -e 40 -c 1 -i 43 -a 1 -x {2.0 0.0 21 ------- null}
d -t 1.560008 -s 1 -d 5 -p ack -e 40 -c 1 -i 43 -a 1 -x {2.0 0.0 21 ------- null}
+ -t 1.57 -s 0 -d 5 -p tcp -e 1040 -c 1 -i 44 -a 1 -x {0.0 2.0 22 ------- null}
- -t 1.57 -s 0 -d 5 -p tcp -e 1040 -c 1 -i 44 -a 1 -x {0.0 2.0 22 ------- null}
h -t 1.57 -s 0 -d 5 -p tcp -e 1040 -c 1 -i 44 -a 1 -x {0.0 2.0 -1 ------- null}
d -t 1.570004 -s 4 -d 5 -p tcp -e 1040 -c 1 -i 44 -a 1 -x {0.0 2.0 22 ------- null}
d -t 1.570004 -s 3 -d 5 -p tcp -e 1040 -c 1 -i 44 -a 1 -x {0.0 2.0 22 ------- null}
d -t 1.570004 -s 1 -d 5 -p tcp -e 1040 -c 1 -i 44 -a 1 -x {0.0 2.0 22 ------- null}
r -t 1.580008 -s 5 -d 0 -p ack -e 40 -c 1 -i 43 -a 1 -x {2.0 0.0 21 ------- null}
r -t 1.590004 -s 5 -d 2 -p tcp -e 1040 -c 1 -i 44 -a 1 -x {0.0 2.0 22 ------- null}
h -t 1.590004 -s 2 -d 5 -p ack -e 40 -c 1 -i 45 -a 1 -x {2.0 0.0 22 ------- null}