h 0.5 0 5 tcp 40 ------- 1 0.0 2.0 0 0
+ 0.52 0 5 tcp 40 ------- 1 0.0 2.0 0 0
- 0.52 0 5 tcp 40 ------- 1 0.0 2.0 0 0
d 0.520004 4 5 tcp 40 ------- 1 0.0 2.0 0 0
d 0.520004 3 5 tcp 40 ------- 1 0.0 2.0 0 0
d 0.520004 1 5 tcp 40 ------- 1 0.0 2.0 0 0
r 0.540004 5 2 tcp 40 ------- 1 0.0 2.0 0 0
h 0.540004 2 5 ack 40 ------- 1 2.0 0.0 0 1
+ 0.560004 2 5 ack 40 ------- 1 2.0 0.0 0 1
- 0.560004 2 5 ack 40 ------- 1 2.0 0.0 0 1
d 0.560008 4 5 ack 40 ------- 1 2.0 0.0 0 1
d 0.560008 3 5 ack 40 ------- 1 2.0 0.0 0 1
d 0.560008 1 5 ack 40 ------- 1 2.0 0.0 0 1
r 0.580008 5 0 ack 40 ------- 1 2.0 0.0 0 1
h 0.580008 0 5 tcp 1040 ------- 1 0.0 2.0 1 2
h 0.580008 0 5 tcp 1040 ------- 1 0.0 2.0 2 3
+ 0.600008 0 5 tcp 1040 ------- 1 0.0 2.0 1 2
- 0.600008 0 5 tcp 1040 ------- 1 0.0 2.0 1 2
+ 0.600008 0 5 tcp 1040 ------- 1 0.0 2.0 2 3
d 0.600012 4 5 tcp 1040 ------- 1 0.0 2.0 1 2
d 0.600012 3 5 tcp 1040 ------- 1 0.0 2.0 1 2
d 0.600012 1 5 tcp 1040 ------- 1 0.0 2.0 1 2
- 0.604424 0 5 tcp 1040 ------- 1 0.0 2.0 2 3
d 0.604428 4 5 tcp 1040 ------- 1 0.0 2.0 2 3
d 0.604428 3 5 tcp 1040 ------- 1 0.0 2.0 2 3
d 0.604428 1 5 tcp 1040 ------- 1 0.0 2.0 2 3
r 0.620012 5 2 tcp 1040 ------- 1 0.0 2.0 1 2
h 0.620012 2 5 ack 40 ------- 1 2.0 0.0 1 4
r 0.624428 5 2 tcp 1040 ------- 1 0.0 2.0 2 3
h 0.624428 2 5 ack 40 ------- 1 2.0 0.0 2 5
+ 0.640012 2 5 ack 40 ------- 1 2.0 0.0 1 4
- 0.640012 2 5 ack 40 ------- 1 2.0 0.0 1 4
d 0.640016 4 5 ack 40 ------- 1 2.0 0.0 1 4
d 0.640016 3 5 ack 40 ------- 1 2.0 0.0 1 4
d 0.640016 1 5 ack 40 ------- 1 2.0 0.0 1 4
+ 0.644428 2 5 ack 40 ------- 1 2.0 0.0 2 5
- 0.644428 2 5 ack 40 ------- 1 2.0 0.0 2 5
d 0.644432 4 5 ack 40 ------- 1 2.0 0.0 2 5
d 0.644432 3 5 ack 40 ------- 1 2.0 0.0 2 5
d 0.644432 1 5 ack 40 ------- 1 2.0 0.0 2 5
r 0.660016 5 0 ack 40 ------- 1 2.0 0.0 1 4
h 0.660016 0 5 tcp 1040 ------- 1 0.0 2.0 3 6
h 0.660016 0 5 tcp 1040 ------- 1 0.0 2.0 4 7
r 0.664432 5 0 ack 40 ------- 1 2.0 0.0 2 5
+ 0.680016 0 5 tcp 1040 ------- 1 0.0 2.0 3 6
- 0.680016 0 5 tcp 1040 ------- 1 0.0 2.0 3 6
+ 0.680016 0 5 tcp 1040 ------- 1 0.0 2.0 4 7
d 0.68002 4 5 tcp 1040 ------- 1 0.0 2.0 3 6
d 0.68002 3 5 tcp 1040 ------- 1 0.0 2.0 3 6
d 0.68002 1 5 tcp 1040 ------- 1 0.0 2.0 3 6
- 0.684432 0 5 tcp 1040 ------- 1 0.0 2.0 4 7
d 0.684436 4 5 tcp 1040 ------- 1 0.0 2.0 4 7
d 0.684436 3 5 tcp 1040 ------- 1 0.0 2.0 4 7
d 0.684436 1 5 tcp 1040 ------- 1 0.0 2.0 4 7
h 0.7 0 5 tcp 1040 ------- 1 0.0 2.0 5 8
r 0.70002 5 2 tcp 1040 ------- 1 0.0 2.0 3 6
h 0.70002 2 5 ack 40 ------- 1 2.0 0.0 3 9
r 0.704436 5 2 tcp 1040 ------- 1 0.0 2.0 4 7
h 0.704436 2 5 ack 40 ------- 1 2.0 0.0 4 10
+ 0.72 0 5 tcp 1040 ------- 1 0.0 2.0 5 8
- 0.72 0 5 tcp 1040 ------- 1 0.0 2.0 5 8
d 0.720004 4 5 tcp 1040 ------- 1 0.0 2.0 5 8
d 0.720004 3 5 tcp 1040 ------- 1 0.0 2.0 5 8
d 0.720004 1 5 tcp 1040 ------- 1 0.0 2.0 5 8
+ 0.72002 2 5 ack 40 ------- 1 2.0 0.0 3 9
- 0.72002 2 5 ack 40 ------- 1 2.0 0.0 3 9
d 0.720024 4 5 ack 40 ------- 1 2.0 0.0 3 9
d 0.720024 3 5 ack 40 ------- 1 2.0 0.0 3 9
d 0.720024 1 5 ack 40 ------- 1 2.0 0.0 3 9
+ 0.724436 2 5 ack 40 ------- 1 2.0 0.0 4 10
- 0.724436 2 5 ack 40 ------- 1 2.0 0.0 4 10
d 0.72444 4 5 ack 40 ------- 1 2.0 0.0 4 10
d 0.72444 3 5 ack 40 ------- 1 2.0 0.0 4 10
d 0.72444 1 5 ack 40 ------- 1 2.0 0.0 4 10
r 0.740004 5 2 tcp 1040 ------- 1 0.0 2.0 5 8
h 0.740004 2 5 ack 40 ------- 1 2.0 0.0 5 11
r 0.740024 5 0 ack 40 ------- 1 2.0 0.0 3 9
r 0.74444 5 0 ack 40 ------- 1 2.0 0.0 4 10
h 0.75 0 5 tcp 1040 ------- 1 0.0 2.0 6 12
+ 0.760004 2 5 ack 40 ------- 1 2.0 0.0 5 11
- 0.760004 2 5 ack 40 ------- 1 2.0 0.0 5 11
d 0.760008 4 5 ack 40 ------- 1 2.0 0.0 5 11
d 0.760008 3 5 ack 40 ------- 1 2.0 0.0 5 11
d 0.760008 1 5 ack 40 ------- 1 2.0 0.0 5 11
+ 0.77 0 5 tcp 1040 ------- 1 0.0 2.0 6 12
- 0.77 0 5 tcp 1040 ------- 1 0.0 2.0 6 12
d 0.770004 4 5 tcp 1040 ------- 1 0.0 2.0 6 12
d 0.770004 3 5 tcp 1040 ------- 1 0.0 2.0 6 12
d 0.770004 1 5 tcp 1040 ------- 1 0.0 2.0 6 12
r 0.780008 5 0 ack 40 ------- 1 2.0 0.0 5 11
r 0.790004 5 2 tcp 1040 ------- 1 0.0 2.0 6 12
h 0.790004 2 5 ack 40 ------- 1 2.0 0.0 6 13
h 0.8 0 5 tcp 1040 ------- 1 0.0 2.0 7 14
+ 0.810004 2 5 ack 40 ------- 1 2.0 0.0 6 13
- 0.810004 2 5 ack 40 ------- 1 2.0 0.0 6 13
d 0.810008 4 5 ack 40 ------- 1 2.0 0.0 6 13
d 0.810008 3 5 ack 40 ------- 1 2.0 0.0 6 13
d 0.810008 1 5 ack 40 ------- 1 2.0 0.0 6 13
+ 0.82 0 5 tcp 1040 ------- 1 0.0 2.0 7 14
- 0.82 0 5 tcp 1040 ------- 1 0.0 2.0 7 14
d 0.820004 4 5 tcp 1040 ------- 1 0.0 2.0 7 14
d 0.820004 3 5 tcp 1040 ------- 1 0.0 2.0 7 14
d 0.820004 1 5 tcp 1040 ------- 1 0.0 2.0 7 14
r 0.830008 5 0 ack 40 ------- 1 2.0 0.0 6 13
r 0.840004 5 2 tcp 1040 ------- 1 0.0 2.0 7 14
h 0.840004 2 5 ack 40 ------- 1 2.0 0.0 7 15
h 0.85 0 5 tcp 1040 ------- 1 0.0 2.0 8 16
+ 0.860004 2 5 ack 40 ------- 1 2.0 0.0 7 15
- 0.860004 2 5 ack 40 ------- 1 2.0 0.0 7 15
d 0.860008 4 5 ack 40 ------- 1 2.0 0.0 7 15
d 0.860008 3 5 ack 40 ------- 1 2.0 0.0 7 15
d 0.860008 1 5 ack 40 ------- 1 2.0 0.0 7 15
+ 0.87 0 5 tcp 1040 ------- 1 0.0 2.0 8 16
- 0.87 0 5 tcp 1040 ------- 1 0.0 2.0 8 16
d 0.870004 4 5 tcp 1040 ------- 1 0.0 2.0 8 16
d 0.870004 3 5 tcp 1040 ------- 1 0.0 2.0 8 16
d 0.870004 1 5 tcp 1040 ------- 1 0.0 2.0 8 16
r 0.880008 5 0 ack 40 ------- 1 2.0 0.0 7 15
r 0.890004 5 2 tcp 1040 ------- 1 0.0 2.0 8 16
h 0.890004 2 5 ack 40 ------- 1 2.0 0.0 8 17
h 0.9 0 5 tcp 1040 ------- 1 0.0 2.0 9 18
+ 0.910004 2 5 ack 40 ------- 1 2.0 0.0 8 17
- 0.910004 2 5 ack 40 ------- 1 2.0 0.0 8 17
d 0.910008 4 5 ack 40 ------- 1 2.0 0.0 8 17
d 0.910008 3 5 ack 40 ------- 1 2.0 0.0 8 17
d 0.910008 1 5 ack 40 ------- 1 2.0 0.0 8 17
+ 0.92 0 5 tcp 1040 ------- 1 0.0 2.0 9 18
- 0.92 0 5 tcp 1040 ------- 1 0.0 2.0 9 18
d 0.920004 4 5 tcp 1040 ------- 1 0.0 2.0 9 18
d 0.920004 3 5 tcp 1040 ------- 1 0.0 2.0 9 18
d 0.920004 1 5 tcp 1040 ------- 1 0.0 2.0 9 18
r 0.930008 5 0 ack 40 ------- 1 2.0 0.0 8 17
r 0.940004 5 2 tcp 1040 ------- 1 0.0 2.0 9 18
h 0.940004 2 5 ack 40 ------- 1 2.0 0.0 9 19
h 0.95 0 5 tcp 1040 ------- 1 0.0 2.0 10 20
+ 0.960004 2 5 ack 40 ------- 1 2.0 0.0 9 19
- 0.960004 2 5 ack 40 ------- 1 2.0 0.0 9 19
d 0.960008 4 5 ack 40 ------- 1 2.0 0.0 9 19
d 0.960008 3 5 ack 40 ------- 1 2.0 0.0 9 19
d 0.960008 1 5 ack 40 ------- 1 2.0 0.0 9 19
+ 0.97 0 5 tcp 1040 ------- 1 0.0 2.0 10 20
- 0.97 0 5 tcp 1040 ------- 1 0.0 2.0 10 20
d 0.970004 4 5 tcp 1040 ------- 1 0.0 2.0 10 20
d 0.970004 3 5 tcp 1040 ------- 1 0.0 2.0 10 20
d 0.970004 1 5 tcp 1040 ------- 1 0.0 2.0 10 20
r 0.980008 5 0 ack 40 ------- 1 2.0 0.0 9 19
r 0.990004 5 2 tcp 1040 ------- 1 0.0 2.0 10 20
h 0.990004 2 5 ack 40 ------- 1 2.0 0.0 10 21
h 1 0 5 tcp 1040 ------- 1 0.0 2.0 11 22
+ 1.010004 2 5 ack 40 ------- 1 2.0 0.0 10 21
- 1.010004 2 5 ack 40 ------- 1 2.0 0.0 10 21
d 1.010008 4 5 ack 40 ------- 1 2.0 0.0 10 21
d 1.010008 3 5 ack 40 ------- 1 2.0 0.0 10 21
d 1.010008 1 5 ack 40 ------- 1 2.0 0.0 10 21
+ 1.02 0 5 tcp 1040 ------- 1 0.0 2.0 11 22
- 1.02 0 5 tcp 1040 ------- 1 0.0 2.0 11 22
d 1.020004 4 5 tcp 1040 ------- 1 0.0 2.0 11 22
d 1.020004 3 5 tcp 1040 ------- 1 0.0 2.0 11 22
d 1.020004 1 5 tcp 1040 ------- 1 0.0 2.0 11 22
r 1.030008 5 0 ack 40 ------- 1 2.0 0.0 10 21
r 1.040004 5 2 tcp 1040 ------- 1 0.0 2.0 11 22
h 1.040004 2 5 ack 40 ------- 1 2.0 0.0 11 23
h 1.05 0 5 tcp 1040 ------- 1 0.0 2.0 12 24
+ 1.060004 2 5 ack 40 ------- 1 2.0 0.0 11 23
- 1.060004 2 5 ack 40 ------- 1 2.0 0.0 11 23
d 1.060008 4 5 ack 40 ------- 1 2.0 0.0 11 23
d 1.060008 3 5 ack 40 ------- 1 2.0 0.0 11 23
d 1.060008 1 5 ack 40 ------- 1 2.0 0.0 11 23
+ 1.07 0 5 tcp 1040 ------- 1 0.0 2.0 12 24
- 1.07 0 5 tcp 1040 ------- 1 0.0 2.0 12 24
d 1.070004 4 5 tcp 1040 ------- 1 0.0 2.0 12 24
d 1.070004 3 5 tcp 1040 ------- 1 0.0 2.0 12 24
d 1.070004 1 5 tcp 1040 ------- 1 0.0 2.0 12 24
r 1.080008 5 0 ack 40 ------- 1 2.0 0.0 11 23
r 1.090004 5 2 tcp 1040 ------- 1 0.0 2.0 12 24
h 1.090004 2 5 ack 40 ------- 1 2.0 0.0 12 25
h 1.1 0 5 tcp 1040 ------- 1 0.0 2.0 13 26
+ 1.110004 2 5 ack 40 ------- 1 2.0 0.0 12 25
- 1.110004 2 5 ack 40 ------- 1 2.0 0.0 12 25
d 1.110008 4 5 ack 40 ------- 1 2.0 0.0 12 25
d 1.110008 3 5 ack 40 ------- 1 2.0 0.0 12 25
d 1.110008 1 5 ack 40 ------- 1 2.0 0.0 12 25
+ 1.12 0 5 tcp 1040 ------- 1 0.0 2.0 13 26
- 1.12 0 5 tcp 1040 ------- 1 0.0 2.0 13 26
d 1.120004 4 5 tcp 1040 ------- 1 0.0 2.0 13 26
d 1.120004 3 5 tcp 1040 ------- 1 0.0 2.0 13 26
d 1.120004 1 5 tcp 1040 ------- 1 0.0 2.0 13 26
r 1.130008 5 0 ack 40 ------- 1 2.0 0.0 12 25
r 1.140004 5 2 tcp 1040 ------- 1 0.0 2.0 13 26
h 1.140004 2 5 ack 40 ------- 1 2.0 0.0 13 27
h 1.15 0 5 tcp 1040 ------- 1 0.0 2.0 14 28
+ 1.160004 2 5 ack 40 ------- 1 2.0 0.0 13 27
- 1.160004 2 5 ack 40 ------- 1 2.0 0.0 13 27
d 1.160008 4 5 ack 40 ------- 1 2.0 0.0 13 27
d 1.160008 3 5 ack 40 ------- 1 2.0 0.0 13 27
d 1.160008 1 5 ack 40 ------- 1 2.0 0.0 13 27
+ 1.17 0 5 tcp 1040 ------- 1 0.0 2.0 14 28
- 1.17 0 5 tcp 1040 ------- 1 0.0 2.0 14 28
d 1.170004 4 5 tcp 1040 ------- 1 0.0 2.0 14 28
d 1.170004 3 5 tcp 1040 ------- 1 0.0 2.0 14 28
d 1.170004 1 5 tcp 1040 ------- 1 0.0 2.0 14 28
r 1.180008 5 0 ack 40 ------- 1 2.0 0.0 13 27
r 1.190004 5 2 tcp 1040 ------- 1 0.0 2.0 14 28
h 1.190004 2 5 ack 40 ------- 1 2.0 0.0 14 29
h 1.2 0 5 tcp 1040 ------- 1 0.0 2.0 15 30
+ 1.210004 2 5 ack 40 ------- 1 2.0 0.0 14 29
- 1.210004 2 5 ack 40 ------- 1 2.0 0.0 14 29
d 1.210008 4 5 ack 40 ------- 1 2.0 0.0 14 29
d 1.210008 3 5 ack 40 ------- 1 2.0 0.0 14 29
d 1.210008 1 5 ack 40 ------- 1 2.0 0.0 14 29
+ 1.22 0 5 tcp 1040 ------- 1 0.0 2.0 15 30
- 1.22 0 5 tcp 1040 ------- 1 0.0 2.0 15 30
d 1.220004 4 5 tcp 1040 ------- 1 0.0 2.0 15 30
d 1.220004 3 5 tcp 1040 ------- 1 0.0 2.0 15 30
d 1.220004 1 5 tcp 1040 ------- 1 0.0 2.0 15 30
r 1.230008 5 0 ack 40 ------- 1 2.0 0.0 14 29
r 1.240004 5 2 tcp 1040 ------- 1 0.0 2.0 15 30
h 1.240004 2 5 ack 40 ------- 1 2.0 0.0 15 31
h 1.25 0 5 tcp 1040 ------- 1 0.0 2.0 16 32
+ 1.260004 2 5 ack 40 ------- 1 2.0 0.0 15 31
- 1.260004 2 5 ack 40 ------- 1 2.0 0.0 15 31
d 1.260008 4 5 ack 40 ------- 1 2.0 0.0 15 31
d 1.260008 3 5 ack 40 ------- 1 2.0 0.0 15 31
d 1.260008 1 5 ack 40 ------- 1 2.0 0.0 15 31
+ 1.27 0 5 tcp 1040 ------- 1 0.0 2.0 16 32
- 1.27 0 5 tcp 1040 ------- 1 0.0 2.0 16 32
d 1.270004 4 5 tcp 1040 ------- 1 0.0 2.0 16 32
d 1.270004 3 5 tcp 1040 ------- 1 0.0 2.0 16 32
d 1.270004 1 5 tcp 1040 ------- 1 0.0 2.0 16 32
r 1.280008 5 0 ack 40 ------- 1 2.0 0.0 15 31
r 1.290004 5 2 tcp 1040 ------- 1 0.0 2.0 16 32
h 1.290004 2 5 ack 40 ------- 1 2.0 0.0 16 33
h 1.3 0 5 tcp 1040 ------- 1 0.0 2.0 17 34
+ 1.310004 2 5 ack 40 ------- 1 2.0 0.0 16 33
- 1.310004 2 5 ack 40 ------- 1 2.0 0.0 16 33
d 1.310008 4 5 ack 40 ------- 1 2.0 0.0 16 33
d 1.310008 3 5 ack 40 ------- 1 2.0 0.0 16 33
d 1.310008 1 5 ack 40 ------- 1 2.0 0.0 16 33
+ 1.32 0 5 tcp 1040 ------- 1 0.0 2.0 17 34
- 1.32 0 5 tcp 1040 ------- 1 0.0 2.0 17 34
d 1.320004 4 5 tcp 1040 ------- 1 0.0 2.0 17 34
d 1.320004 3 5 tcp 1040 ------- 1 0.0 2.0 17 34
d 1.320004 1 5 tcp 1040 ------- 1 0.0 2.0 17 34
r 1.330008 5 0 ack 40 ------- 1 2.0 0.0 16 33
r 1.340004 5 2 tcp 1040 ------- 1 0.0 2.0 17 34
h 1.340004 2 5 ack 40 ------- 1 2.0 0.0 17 35
h 1.35 0 5 tcp 1040 ------- 1 0.0 2.0 18 36
+ 1.360004 2 5 ack 40 ------- 1 2.0 0.0 17 35
- 1.360004 2 5 ack 40 ------- 1 2.0 0.0 17 35
d 1.360008 4 5 ack 40 ------- 1 2.0 0.0 17 35
d 1.360008 3 5 ack 40 ------- 1 2.0 0.0 17 35
d 1.360008 1 5 ack 40 ------- 1 2.0 0.0 17 35
+ 1.37 0 5 tcp 1040 ------- 1 0.0 2.0 18 36
- 1.37 0 5 tcp 1040 ------- 1 0.0 2.0 18 36
d 1.370004 4 5 tcp 1040 ------- 1 0.0 2.0 18 36
d 1.370004 3 5 tcp 1040 ------- 1 0.0 2.0 18 36
d 1.370004 1 5 tcp 1040 ------- 1 0.0 2.0 18 36
r 1.380008 5 0 ack 40 ------- 1 2.0 0.0 17 35
r 1.390004 5 2 tcp 1040 ------- 1 0.0 2.0 18 36
h 1.390004 2 5 ack 40 ------- 1 2.0 0.0 18 37
h 1.4 0 5 tcp 1040 ------- 1 0.0 2.0 19 38
+ 1.410004 2 5 ack 40 ------- 1 2.0 0.0 18 37
- 1.410004 2 5 ack 40 ------- 1 2.0 0.0 18 37
d 1.410008 4 5 ack 40 ------- 1 2.0 0.0 18 37
d 1.410008 3 5 ack 40 ------- 1 2.0 0.0 18 37
d 1.410008 1 5 ack 40 ------- 1 2.0 0.0 18 37
+ 1.42 0 5 tcp 1040 ------- 1 0.0 2.0 19 38
- 1.42 0 5 tcp 1040 ------- 1 0.0 2.0 19 38
d 1.420004 4 5 tcp 1040 ------- 1 0.0 2.0 19 38
d 1.420004 3 5 tcp 1040 ------- 1 0.0 2.0 19 38
d 1.420004 1 5 tcp 1040 ------- 1 0.0 2.0 19 38
r 1.430008 5 0 ack 40 ------- 1 2.0 0.0 18 37
r 1.440004 5 2 tcp 1040 ------- 1 0.0 2.0 19 38
h 1.440004 2 5 ack 40 ------- 1 2.0 0.0 19 39
h 1.45 0 5 tcp 1040 ------- 1 0.0 2.0 20 40
+ 1.460004 2 5 ack 40 ------- 1 2.0 0.0 19 39
- 1.460004 2 5 ack 40 ------- 1 2.0 0.0 19 39
d 1.460008 4 5 ack 40 ------- 1 2.0 0.0 19 39
d 1.460008 3 5 ack 40 ------- 1 2.0 0.0 19 39
d 1.460008 1 5 ack 40 ------- 1 2.0 0.0 19 39
+ 1.47 0 5 tcp 1040 ------- 1 0.0 2.0 20 40
- 1.47 0 5 tcp 1040 ------- 1 0.0 2.0 20 40
d 1.470004 4 5 tcp 1040 ------- 1 0.0 2.0 20 40
d 1.470004 3 5 tcp 1040 ------- 1 0.0 2.0 20 40
d 1.470004 1 5 tcp 1040 ------- 1 0.0 2.0 20 40
r 1.480008 5 0 ack 40 ------- 1 2.0 0.0 19 39
r 1.490004 5 2 tcp 1040 ------- 1 0.0 2.0 20 40
h 1.490004 2 5 ack 40 ------- 1 2.0 0.0 20 41
h 1.5 0 5 tcp 1040 ------- 1 0.0 2.0 21 42
+ 1.510004 2 5 ack 40 ------- 1 2.0 0.0 20 41
- 1.510004 2 5 ack 40 ------- 1 2.0 0.0 20 41
d 1.510008 4 5 ack 40 ------- 1 2.0 0.0 20 41
d 1.510008 3 5 ack 40 ------- 1 2.0 0.0 20 41
d 1.510008 1 5 ack 40 ------- 1 2.0 0.0 20 41
+ 1.52 0 5 tcp 1040 ------- 1 0.0 2.0 21 42
- 1.52 0 5 tcp 1040 ------- 1 0.0 2.0 21 42
d 1.520004 4 5 tcp 1040 ------- 1 0.0 2.0 21 42
d 1.520004 3 5 tcp 1040 ------- 1 0.0 2.0 21 42
d 1.520004 1 5 tcp 1040 ------- 1 0.0 2.0 21 42
r 1.530008 5 0 ack 40 ------- 1 2.0 0.0 20 41
r 1.540004 5 2 tcp 1040 ------- 1 0.0 2.0 21 42
h 1.540004 2 5 ack 40 ------- 1 2.0 0.0 21 43
h 1.55 0 5 tcp 1040 ------- 1 0.0 2.0 22 44
+ 1.560004 2 5 ack 40 ------- 1 2.0 0.0 21 43
- 1.560004 2 5 ack 40 ------- 1 2.0 0.0 21 43
d 1.560008 4 5 ack 40 ------- 1 2.0 0.0 21 43
d 1.560008 3 5 ack 40 ------- 1 2.0 0.0 21 43
d 1.560008 1 5 ack 40 ------- 1 2.0 0.0 21 43
+ 1.57 0 5 tcp 1040 ------- 1 0.0 2.0 22 44
- 1.57 0 5 tcp 1040 ------- 1 0.0 2.0 22 44
d 1.570004 4 5 tcp 1040 ------- 1 0.0 2.0 22 44
d 1.570004 3 5 tcp 1040 ------- 1 0.0 2.0 22 44
d 1.570004 1 5 tcp 1040 ------- 1 0.0 2.0 22 44
r 1.580008 5 0 ack 40 ------- 1 2.0 0.0 21 43
r 1.590004 5 2 tcp 1040 ------- 1 0.0 2.0 22 44
h 1.590004 2 5 ack 40 ------- 1 2.0 0.0 22 45
h 1.6 0 5 tcp 1040 ------- 1 0.0 2.0 23 46
+ 1.610004 2 5 ack 40 ------- 1 2.0 0.0 22 45
- 1.610004 2 5 ack 40 ------- 1 2.0 0.0 22 45
d 1.610008 4 5 ack 40 ------- 1 2.0 0.0 22 45
d 1.610008 3 5 ack 40 ------- 1 2.0 0.0 22 45
d 1.610008 1 5 ack 40 ------- 1 2.0 0.0 22 45
+ 1.62 0 5 tcp 1040 ------- 1 0.0 2.0 23 46
- 1.62 0 5 tcp 1040 ------- 1 0.0 2.0 23 46
d 1.620004 4 5 tcp 1040 ------- 1 0.0 2.0 23 46
d 1.620004 3 5 tcp 1040 ------- 1 0.0 2.0 23 46
d 1.620004 1 5 tcp 1040 ------- 1 0.0 2.0 23 46
r 1.630008 5 0 ack 40 ------- 1 2.0 0.0 22 45
r 1.640004 5 2 tcp 1040 ------- 1 0.0 2.0 23 46
h 1.640004 2 5 ack 40 ------- 1 2.0 0.0 23 47
h 1.65 0 5 tcp 1040 ------- 1 0.0 2.0 24 48
+ 1.660004 2 5 ack 40 ------- 1 2.0 0.0 23 47
- 1.660004 2 5 ack 40 ------- 1 2.0 0.0 23 47
d 1.660008 4 5 ack 40 ------- 1 2.0 0.0 23 47
d 1.660008 3 5 ack 40 ------- 1 2.0 0.0 23 47
d 1.660008 1 5 ack 40 ------- 1 2.0 0.0 23 47
+ 1.67 0 5 tcp 1040 ------- 1 0.0 2.0 24 48
- 1.67 0 5 tcp 1040 ------- 1 0.0 2.0 24 48
d 1.670004 4 5 tcp 1040 ------- 1 0.0 2.0 24 48
d 1.670004 3 5 tcp 1040 ------- 1 0.0 2.0 24 48
d 1.670004 1 5 tcp 1040 ------- 1 0.0 2.0 24 48
r 1.680008 5 0 ack 40 ------- 1 2.0 0.0 23 47
r 1.690004 5 2 tcp 1040 ------- 1 0.0 2.0 24 48
h 1.690004 2 5 ack 40 ------- 1 2.0 0.0 24 49
h 1.7 0 5 tcp 1040 ------- 1 0.0 2.0 25 50
+ 1.710004 2 5 ack 40 ------- 1 2.0 0.0 24 49
- 1.710004 2 5 ack 40 ------- 1 2.0 0.0 24 49
d 1.710008 4 5 ack 40 ------- 1 2.0 0.0 24 49
d 1.710008 3 5 ack 40 ------- 1 2.0 0.0 24 49
d 1.710008 1 5 ack 40 ------- 1 2.0 0.0 24 49
+ 1.72 0 5 tcp 1040 ------- 1 0.0 2.0 25 50
- 1.72 0 5 tcp 1040 ------- 1 0.0 2.0 25 50
d 1.720004 4 5 tcp 1040 ------- 1 0.0 2.0 25 50
d 1.720004 3 5 tcp 1040 ------- 1 0.0 2.0 25 50
d 1.720004 1 5 tcp 1040 ------- 1 0.0 2.0 25 50
r 1.730008 5 0 ack 40 ------- 1 2.0 0.0 24 49
r 1.740004 5 2 tcp 1040 ------- 1 0.0 2.0 25 50
h 1.740004 2 5 ack 40 ------- 1 2.0 0.0 25 51
h 1.75 0 5 tcp 1040 ------- 1 0.0 2.0 26 52
+ 1.760004 2 5 ack 40 ------- 1 2.0 0.0 25 51
- 1.760004 2 5 ack 40 ------- 1 2.0 0.0 25 51
d 1.760008 4 5 ack 40 ------- 1 2.0 0.0 25 51
d 1.760008 3 5 ack 40 ------- 1 2.0 0.0 25 51
d 1.760008 1 5 ack 40 ------- 1 2.0 0.0 25 51
+ 1.77 0 5 tcp 1040 ------- 1 0.0 2.0 26 52
- 1.77 0 5 tcp 1040 ------- 1 0.0 2.0 26 52
d 1.770004 4 5 tcp 1040 ------- 1 0.0 2.0 26 52
d 1.770004 3 5 tcp 1040 ------- 1 0.0 2.0 26 52
d 1.770004 1 5 tcp 1040 ------- 1 0.0 2.0 26 52
r 1.780008 5 0 ack 40 ------- 1 2.0 0.0 25 51
r 1.790004 5 2 tcp 1040 ------- 1 0.0 2.0 26 52
h 1.790004 2 5 ack 40 ------- 1 2.0 0.0 26 53
h 1.8 0 5 tcp 1040 ------- 1 0.0 2.0 27 54
+ 1.810004 2 5 ack 40 ------- 1 2.0 0.0 26 53
- 1.810004 2 5 ack 40 ------- 1 2.0 0.0 26 53
d 1.810008 4 5 ack 40 ------- 1 2.0 0.0 26 53
d 1.810008 3 5 ack 40 ------- 1 2.0 0.0 26 53
d 1.810008 1 5 ack 40 ------- 1 2.0 0.0 26 53
+ 1.82 0 5 tcp 1040 ------- 1 0.0 2.0 27 54
- 1.82 0 5 tcp 1040 ------- 1 0.0 2.0 27 54
d 1.820004 4 5 tcp 1040 ------- 1 0.0 2.0 27 54
d 1.820004 3 5 tcp 1040 ------- 1 0.0 2.0 27 54
d 1.820004 1 5 tcp 1040 ------- 1 0.0 2.0 27 54
r 1.830008 5 0 ack 40 ------- 1 2.0 0.0 26 53
r 1.840004 5 2 tcp 1040 ------- 1 0.0 2.0 27 54
h 1.840004 2 5 ack 40 ------- 1 2.0 0.0 27 55
h 1.85 0 5 tcp 1040 ------- 1 0.0 2.0 28 56
+ 1.860004 2 5 ack 40 ------- 1 2.0 0.0 27 55
- 1.860004 2 5 ack 40 ------- 1 2.0 0.0 27 55
d 1.860008 4 5 ack 40 ------- 1 2.0 0.0 27 55
d 1.860008 3 5 ack 40 ------- 1 2.0 0.0 27 55
d 1.860008 1 5 ack 40 ------- 1 2.0 0.0 27 55
+ 1.87 0 5 tcp 1040 ------- 1 0.0 2.0 28 56
- 1.87 0 5 tcp 1040 ------- 1 0.0 2.0 28 56
d 1.870004 4 5 tcp 1040 ------- 1 0.0 2.0 28 56
d 1.870004 3 5 tcp 1040 ------- 1 0.0 2.0 28 56
d 1.870004 1 5 tcp 1040 ------- 1 0.0 2.0 28 56
r 1.880008 5 0 ack 40 ------- 1 2.0 0.0 27 55
r 1.890004 5 2 tcp 1040 ------- 1 0.0 2.0 28 56
h 1.890004 2 5 ack 40 ------- 1 2.0 0.0 28 57
h 1.9 0 5 tcp 1040 ------- 1 0.0 2.0 29 58
+ 1.910004 2 5 ack 40 ------- 1 2.0 0.0 28 57
- 1.910004 2 5 ack 40 ------- 1 2.0 0.0 28 57
d 1.910008 4 5 ack 40 ------- 1 2.0 0.0 28 57
d 1.910008 3 5 ack 40 ------- 1 2.0 0.0 28 57
d 1.910008 1 5 ack 40 ------- 1 2.0 0.0 28 57
+ 1.92 0 5 tcp 1040 ------- 1 0.0 2.0 29 58
- 1.92 0 5 tcp 1040 ------- 1 0.0 2.0 29 58
d 1.920004 4 5 tcp 1040 ------- 1 0.0 2.0 29 58
d 1.920004 3 5 tcp 1040 ------- 1 0.0 2.0 29 58
d 1.920004 1 5 tcp 1040 ------- 1 0.0 2.0 29 58
r 1.930008 5 0 ack 40 ------- 1 2.0 0.0 28 57
r 1.940004 5 2 tcp 1040 ------- 1 0.0 2.0 29 58
h 1.940004 2 5 ack 40 ------- 1 2.0 0.0 29 59
h 1.95 0 5 tcp 1040 ------- 1 0.0 2.0 30 60
+ 1.960004 2 5 ack 40 ------- 1 2.0 0.0 29 59
- 1.960004 2 5 ack 40 ------- 1 2.0 0.0 29 59
d 1.960008 4 5 ack 40 ------- 1 2.0 0.0 29 59
d 1.960008 3 5 ack 40 ------- 1 2.0 0.0 29 59
d 1.960008 1 5 ack 40 ------- 1 2.0 0.0 29 59
+ 1.97 0 5 tcp 1040 ------- 1 0.0 2.0 30 60
- 1.97 0 5 tcp 1040 ------- 1 0.0 2.0 30 60
d 1.970004 4 5 tcp 1040 ------- 1 0.0 2.0 30 60
d 1.970004 3 5 tcp 1040 ------- 1 0.0 2.0 30 60
d 1.970004 1 5 tcp 1040 ------- 1 0.0 2.0 30 60
r 1.980008 5 0 ack 40 ------- 1 2.0 0.0 29 59
r 1.990004 5 2 tcp 1040 ------- 1 0.0 2.0 30 60
h 1.990004 2 5 ack 40 ------- 1 2.0 0.0 30 61
h 2 0 5 tcp 1040 ------- 1 0.0 2.0 31 62
+ 2.010004 2 5 ack 40 ------- 1 2.0 0.0 30 61
- 2.010004 2 5 ack 40 ------- 1 2.0 0.0 30 61
d 2.010008 4 5 ack 40 ------- 1 2.0 0.0 30 61
d 2.010008 3 5 ack 40 ------- 1 2.0 0.0 30 61
d 2.010008 1 5 ack 40 ------- 1 2.0 0.0 30 61
+ 2.02 0 5 tcp 1040 ------- 1 0.0 2.0 31 62
- 2.02 0 5 tcp 1040 ------- 1 0.0 2.0 31 62
d 2.020004 4 5 tcp 1040 ------- 1 0.0 2.0 31 62
d 2.020004 3 5 tcp 1040 ------- 1 0.0 2.0 31 62
d 2.020004 1 5 tcp 1040 ------- 1 0.0 2.0 31 62
r 2.030008 5 0 ack 40 ------- 1 2.0 0.0 30 61
r 2.040004 5 2 tcp 1040 ------- 1 0.0 2.0 31 62
h 2.040004 2 5 ack 40 ------- 1 2.0 0.0 31 63
h 2.05 0 5 tcp 1040 ------- 1 0.0 2.0 32 64
+ 2.060004 2 5 ack 40 ------- 1 2.0 0.0 31 63
- 2.060004 2 5 ack 40 ------- 1 2.0 0.0 31 63
d 2.060008 4 5 ack 40 ------- 1 2.0 0.0 31 63
d 2.060008 3 5 ack 40 ------- 1 2.0 0.0 31 63
d 2.060008 1 5 ack 40 ------- 1 2.0 0.0 31 63
+ 2.07 0 5 tcp 1040 ------- 1 0.0 2.0 32 64
- 2.07 0 5 tcp 1040 ------- 1 0.0 2.0 32 64
d 2.070004 4 5 tcp 1040 ------- 1 0.0 2.0 32 64
d 2.070004 3 5 tcp 1040 ------- 1 0.0 2.0 32 64
d 2.070004 1 5 tcp 1040 ------- 1 0.0 2.0 32 64
r 2.080008 5 0 ack 40 ------- 1 2.0 0.0 31 63
r 2.090004 5 2 tcp 1040 ------- 1 0.0 2.0 32 64
h 2.090004 2 5 ack 40 ------- 1 2.0 0.0 32 65
h 2.1 0 5 tcp 1040 ------- 1 0.0 2.0 33 66
+ 2.110004 2 5 ack 40 ------- 1 2.0 0.0 32 65
- 2.110004 2 5 ack 40 ------- 1 2.0 0.0 32 65
d 2.110008 4 5 ack 40 ------- 1 2.0 0.0 32 65
d 2.110008 3 5 ack 40 ------- 1 2.0 0.0 32 65
d 2.110008 1 5 ack 40 ------- 1 2.0 0.0 32 65
+ 2.12 0 5 tcp 1040 ------- 1 0.0 2.0 33 66
- 2.12 0 5 tcp 1040 ------- 1 0.0 2.0 33 66
d 2.120004 4 5 tcp 1040 ------- 1 0.0 2.0 33 66
d 2.120004 3 5 tcp 1040 ------- 1 0.0 2.0 33 66
d 2.120004 1 5 tcp 1040 ------- 1 0.0 2.0 33 66
r 2.130008 5 0 ack 40 ------- 1 2.0 0.0 32 65
r 2.140004 5 2 tcp 1040 ------- 1 0.0 2.0 33 66
h 2.140004 2 5 ack 40 ------- 1 2.0 0.0 33 67
h 2.15 0 5 tcp 1040 ------- 1 0.0 2.0 34 68
+ 2.160004 2 5 ack 40 ------- 1 2.0 0.0 33 67
- 2.160004 2 5 ack 40 ------- 1 2.0 0.0 33 67
d 2.160008 4 5 ack 40 ------- 1 2.0 0.0 33 67
d 2.160008 3 5 ack 40 ------- 1 2.0 0.0 33 67
d 2.160008 1 5 ack 40 ------- 1 2.0 0.0 33 67
+ 2.17 0 5 tcp 1040 ------- 1 0.0 2.0 34 68
- 2.17 0 5 tcp 1040 ------- 1 0.0 2.0 34 68
d 2.170004 4 5 tcp 1040 ------- 1 0.0 2.0 34 68
d 2.170004 3 5 tcp 1040 ------- 1 0.0 2.0 34 68
d 2.170004 1 5 tcp 1040 ------- 1 0.0 2.0 34 68
r 2.180008 5 0 ack 40 ------- 1 2.0 0.0 33 67
r 2.190004 5 2 tcp 1040 ------- 1 0.0 2.0 34 68
h 2.190004 2 5 ack 40 ------- 1 2.0 0.0 34 69
h 2.2 0 5 tcp 1040 ------- 1 0.0 2.0 35 70
+ 2.210004 2 5 ack 40 ------- 1 2.0 0.0 34 69
- 2.210004 2 5 ack 40 ------- 1 2.0 0.0 34 69
d 2.210008 4 5 ack 40 ------- 1 2.0 0.0 34 69
d 2.210008 3 5 ack 40 ------- 1 2.0 0.0 34 69
d 2.210008 1 5 ack 40 ------- 1 2.0 0.0 34 69
+ 2.22 0 5 tcp 1040 ------- 1 0.0 2.0 35 70
- 2.22 0 5 tcp 1040 ------- 1 0.0 2.0 35 70
d 2.220004 4 5 tcp 1040 ------- 1 0.0 2.0 35 70
d 2.220004 3 5 tcp 1040 ------- 1 0.0 2.0 35 70
d 2.220004 1 5 tcp 1040 ------- 1 0.0 2.0 35 70
r 2.230008 5 0 ack 40 ------- 1 2.0 0.0 34 69
r 2.240004 5 2 tcp 1040 ------- 1 0.0 2.0 35 70
h 2.240004 2 5 ack 40 ------- 1 2.0 0.0 35 71
h 2.25 0 5 tcp 1040 ------- 1 0.0 2.0 36 72
+ 2.260004 2 5 ack 40 ------- 1 2.0 0.0 35 71
- 2.260004 2 5 ack 40 ------- 1 2.0 0.0 35 71
d 2.260008 4 5 ack 40 ------- 1 2.0 0.0 35 71
d 2.260008 3 5 ack 40 ------- 1 2.0 0.0 35 71
d 2.260008 1 5 ack 40 ------- 1 2.0 0.0 35 71
+ 2.27 0 5 tcp 1040 ------- 1 0.0 2.0 36 72
- 2.27 0 5 tcp 1040 ------- 1 0.0 2.0 36 72
d 2.270004 4 5 tcp 1040 ------- 1 0.0 2.0 36 72
d 2.270004 3 5 tcp 1040 ------- 1 0.0 2.0 36 72
d 2.270004 1 5 tcp 1040 ------- 1 0.0 2.0 36 72
r 2.280008 5 0 ack 40 ------- 1 2.0 0.0 35 71
r 2.290004 5 2 tcp 1040 ------- 1 0.0 2.0 36 72
h 2.290004 2 5 ack 40 ------- 1 2.0 0.0 36 73
h 2.3 0 5 tcp 1040 ------- 1 0.0 2.0 37 74
+ 2.310004 2 5 ack 40 ------- 1 2.0 0.0 36 73
- 2.310004 2 5 ack 40 ------- 1 2.0 0.0 36 73
d 2.310008 4 5 ack 40 ------- 1 2.0 0.0 36 73
d 2.310008 3 5 ack 40 ------- 1 2.0 0.0 36 73
d 2.310008 1 5 ack 40 ------- 1 2.0 0.0 36 73
+ 2.32 0 5 tcp 1040 ------- 1 0.0 2.0 37 74
- 2.32 0 5 tcp 1040 ------- 1 0.0 2.0 37 74
d 2.320004 4 5 tcp 1040 ------- 1 0.0 2.0 37 74
d 2.320004 3 5 tcp 1040 ------- 1 0.0 2.0 37 74
d 2.320004 1 5 tcp 1040 ------- 1 0.0 2.0 37 74
r 2.330008 5 0 ack 40 ------- 1 2.0 0.0 36 73
r 2.340004 5 2 tcp 1040 ------- 1 0.0 2.0 37 74
h 2.340004 2 5 ack 40 ------- 1 2.0 0.0 37 75
h 2.35 0 5 tcp 1040 ------- 1 0.0 2.0 38 76
+ 2.360004 2 5 ack 40 ------- 1 2.0 0.0 37 75
- 2.360004 2 5 ack 40 ------- 1 2.0 0.0 37 75
d 2.360008 4 5 ack 40 ------- 1 2.0 0.0 37 75
d 2.360008 3 5 ack 40 ------- 1 2.0 0.0 37 75
d 2.360008 1 5 ack 40 ------- 1 2.0 0.0 37 75
+ 2.37 0 5 tcp 1040 ------- 1 0.0 2.0 38 76
- 2.37 0 5 tcp 1040 ------- 1 0.0 2.0 38 76
d 2.370004 4 5 tcp 1040 ------- 1 0.0 2.0 38 76
d 2.370004 3 5 tcp 1040 ------- 1 0.0 2.0 38 76
d 2.370004 1 5 tcp 1040 ------- 1 0.0 2.0 38 76
r 2.380008 5 0 ack 40 ------- 1 2.0 0.0 37 75
r 2.390004 5 2 tcp 1040 ------- 1 0.0 2.0 38 76
h 2.390004 2 5 ack 40 ------- 1 2.0 0.0 38 77
h 2.4 0 5 tcp 1040 ------- 1 0.0 2.0 39 78
+ 2.410004 2 5 ack 40 ------- 1 2.0 0.0 38 77
- 2.410004 2 5 ack 40 ------- 1 2.0 0.0 38 77
d 2.410008 4 5 ack 40 ------- 1 2.0 0.0 38 77
d 2.410008 3 5 ack 40 ------- 1 2.0 0.0 38 77
d 2.410008 1 5 ack 40 ------- 1 2.0 0.0 38 77
+ 2.42 0 5 tcp 1040 ------- 1 0.0 2.0 39 78
- 2.42 0 5 tcp 1040 ------- 1 0.0 2.0 39 78
d 2.420004 4 5 tcp 1040 ------- 1 0.0 2.0 39 78
d 2.420004 3 5 tcp 1040 ------- 1 0.0 2.0 39 78
d 2.420004 1 5 tcp 1040 ------- 1 0.0 2.0 39 78
r 2.430008 5 0 ack 40 ------- 1 2.0 0.0 38 77
r 2.440004 5 2 tcp 1040 ------- 1 0.0 2.0 39 78
h 2.440004 2 5 ack 40 ------- 1 2.0 0.0 39 79
h 2.45 0 5 tcp 1040 ------- 1 0.0 2.0 40 80
+ 2.460004 2 5 ack 40 ------- 1 2.0 0.0 39 79
- 2.460004 2 5 ack 40 ------- 1 2.0 0.0 39 79
d 2.460008 4 5 ack 40 ------- 1 2.0 0.0 39 79
d 2.460008 3 5 ack 40 ------- 1 2.0 0.0 39 79
d 2.460008 1 5 ack 40 ------- 1 2.0 0.0 39 79
+ 2.47 0 5 tcp 1040 ------- 1 0.0 2.0 40 80
- 2.47 0 5 tcp 1040 ------- 1 0.0 2.0 40 80
d 2.470004 4 5 tcp 1040 ------- 1 0.0 2.0 40 80
d 2.470004 3 5 tcp 1040 ------- 1 0.0 2.0 40 80
d 2.470004 1 5 tcp 1040 ------- 1 0.0 2.0 40 80
r 2.480008 5 0 ack 40 ------- 1 2.0 0.0 39 79
r 2.490004 5 2 tcp 1040 ------- 1 0.0 2.0 40 80
h 2.490004 2 5 ack 40 ------- 1 2.0 0.0 40 81
h 2.5 0 5 tcp 1040 ------- 1 0.0 2.0 41 82
+ 2.510004 2 5 ack 40 ------- 1 2.0 0.0 40 81
- 2.510004 2 5 ack 40 ------- 1 2.0 0.0 40 81
d 2.510008 4 5 ack 40 ------- 1 2.0 0.0 40 81
d 2.510008 3 5 ack 40 ------- 1 2.0 0.0 40 81
d 2.510008 1 5 ack 40 ------- 1 2.0 0.0 40 81
+ 2.52 0 5 tcp 1040 ------- 1 0.0 2.0 41 82
- 2.52 0 5 tcp 1040 ------- 1 0.0 2.0 41 82
d 2.520004 4 5 tcp 1040 ------- 1 0.0 2.0 41 82
d 2.520004 3 5 tcp 1040 ------- 1 0.0 2.0 41 82
d 2.520004 1 5 tcp 1040 ------- 1 0.0 2.0 41 82
r 2.530008 5 0 ack 40 ------- 1 2.0 0.0 40 81
r 2.540004 5 2 tcp 1040 ------- 1 0.0 2.0 41 82
h 2.540004 2 5 ack 40 ------- 1 2.0 0.0 41 83
h 2.55 0 5 tcp 1040 ------- 1 0.0 2.0 42 84
+ 2.560004 2 5 ack 40 ------- 1 2.0 0.0 41 83
- 2.560004 2 5 ack 40 ------- 1 2.0 0.0 41 83
d 2.560008 4 5 ack 40 ------- 1 2.0 0.0 41 83
d 2.560008 3 5 ack 40 ------- 1 2.0 0.0 41 83
d 2.560008 1 5 ack 40 ------- 1 2.0 0.0 41 83
+ 2.57 0 5 tcp 1040 ------- 1 0.0 2.0 42 84
- 2.57 0 5 tcp 1040 ------- 1 0.0 2.0 42 84
d 2.570004 4 5 tcp 1040 ------- 1 0.0 2.0 42 84
d 2.570004 3 5 tcp 1040 ------- 1 0.0 2.0 42 84
d 2.570004 1 5 tcp 1040 ------- 1 0.0 2.0 42 84
r 2.580008 5 0 ack 40 ------- 1 2.0 0.0 41 83
r 2.590004 5 2 tcp 1040 ------- 1 0.0 2.0 42 84
h 2.590004 2 5 ack 40 ------- 1 2.0 0.0 42 85
h 2.6 0 5 tcp 1040 ------- 1 0.0 2.0 43 86
+ 2.610004 2 5 ack 40 ------- 1 2.0 0.0 42 85
- 2.610004 2 5 ack 40 ------- 1 2.0 0.0 42 85
d 2.610008 4 5 ack 40 ------- 1 2.0 0.0 42 85
d 2.610008 3 5 ack 40 ------- 1 2.0 0.0 42 85
d 2.610008 1 5 ack 40 ------- 1 2.0 0.0 42 85
+ 2.62 0 5 tcp 1040 ------- 1 0.0 2.0 43 86
- 2.62 0 5 tcp 1040 ------- 1 0.0 2.0 43 86
d 2.620004 4 5 tcp 1040 ------- 1 0.0 2.0 43 86
d 2.620004 3 5 tcp 1040 ------- 1 0.0 2.0 43 86
d 2.620004 1 5 tcp 1040 ------- 1 0.0 2.0 43 86
r 2.630008 5 0 ack 40 ------- 1 2.0 0.0 42 85
r 2.640004 5 2 tcp 1040 ------- 1 0.0 2.0 43 86
h 2.640004 2 5 ack 40 ------- 1 2.0 0.0 43 87
h 2.65 0 5 tcp 1040 ------- 1 0.0 2.0 44 88
+ 2.660004 2 5 ack 40 ------- 1 2.0 0.0 43 87
- 2.660004 2 5 ack 40 ------- 1 2.0 0.0 43 87
d 2.660008 4 5 ack 40 ------- 1 2.0 0.0 43 87
d 2.660008 3 5 ack 40 ------- 1 2.0 0.0 43 87
d 2.660008 1 5 ack 40 ------- 1 2.0 0.0 43 87
+ 2.67 0 5 tcp 1040 ------- 1 0.0 2.0 44 88
- 2.67 0 5 tcp 1040 ------- 1 0.0 2.0 44 88
d 2.670004 4 5 tcp 1040 ------- 1 0.0 2.0 44 88
d 2.670004 3 5 tcp 1040 ------- 1 0.0 2.0 44 88
d 2.670004 1 5 tcp 1040 ------- 1 0.0 2.0 44 88
r 2.680008 5 0 ack 40 ------- 1 2.0 0.0 43 87
r 2.690004 5 2 tcp 1040 ------- 1 0.0 2.0 44 88
h 2.690004 2 5 ack 40 ------- 1 2.0 0.0 44 89
h 2.7 0 5 tcp 1040 ------- 1 0.0 2.0 45 90
+ 2.710004 2 5 ack 40 ------- 1 2.0 0.0 44 89
- 2.710004 2 5 ack 40 ------- 1 2.0 0.0 44 89
d 2.710008 4 5 ack 40 ------- 1 2.0 0.0 44 89
d 2.710008 3 5 ack 40 ------- 1 2.0 0.0 44 89
d 2.710008 1 5 ack 40 ------- 1 2.0 0.0 44 89
+ 2.72 0 5 tcp 1040 ------- 1 0.0 2.0 45 90
- 2.72 0 5 tcp 1040 ------- 1 0.0 2.0 45 90
d 2.720004 4 5 tcp 1040 ------- 1 0.0 2.0 45 90
d 2.720004 3 5 tcp 1040 ------- 1 0.0 2.0 45 90
d 2.720004 1 5 tcp 1040 ------- 1 0.0 2.0 45 90
r 2.730008 5 0 ack 40 ------- 1 2.0 0.0 44 89
r 2.740004 5 2 tcp 1040 ------- 1 0.0 2.0 45 90
h 2.740004 2 5 ack 40 ------- 1 2.0 0.0 45 91
h 2.75 0 5 tcp 1040 ------- 1 0.0 2.0 46 92
+ 2.760004 2 5 ack 40 ------- 1 2.0 0.0 45 91
- 2.760004 2 5 ack 40 ------- 1 2.0 0.0 45 91
d 2.760008 4 5 ack 40 ------- 1 2.0 0.0 45 91
d 2.760008 3 5 ack 40 ------- 1 2.0 0.0 45 91
d 2.760008 1 5 ack 40 ------- 1 2.0 0.0 45 91
+ 2.77 0 5 tcp 1040 ------- 1 0.0 2.0 46 92
- 2.77 0 5 tcp 1040 ------- 1 0.0 2.0 46 92
d 2.770004 4 5 tcp 1040 ------- 1 0.0 2.0 46 92
d 2.770004 3 5 tcp 1040 ------- 1 0.0 2.0 46 92
d 2.770004 1 5 tcp 1040 ------- 1 0.0 2.0 46 92
r 2.780008 5 0 ack 40 ------- 1 2.0 0.0 45 91
r 2.790004 5 2 tcp 1040 ------- 1 0.0 2.0 46 92
h 2.790004 2 5 ack 40 ------- 1 2.0 0.0 46 93
h 2.8 0 5 tcp 1040 ------- 1 0.0 2.0 47 94
+ 2.810004 2 5 ack 40 ------- 1 2.0 0.0 46 93