+ 0.1 0 1 tcp 40 ------- 0 0.0 2.0 0 0
- 0.1 0 1 tcp 40 ------- 0 0.0 2.0 0 0
r 0.232 0 1 tcp 40 ------- 0 0.0 2.0 0 0
+ 0.232 1 2 tcp 40 ------- 0 0.0 2.0 0 0
- 0.232 1 2 tcp 40 ------- 0 0.0 2.0 0 0
r 0.432064 1 2 tcp 40 ------- 0 0.0 2.0 0 0
+ 0.432064 2 1 ack 40 ------- 0 2.0 0.0 0 1
- 0.432064 2 1 ack 40 ------- 0 2.0 0.0 0 1
r 0.632128 2 1 ack 40 ------- 0 2.0 0.0 0 1
+ 0.632128 1 0 ack 40 ------- 0 2.0 0.0 0 1
- 0.632128 1 0 ack 40 ------- 0 2.0 0.0 0 1
r 0.764128 1 0 ack 40 ------- 0 2.0 0.0 0 1
+ 0.764128 0 1 tcp 1040 ------- 0 0.0 2.0 1 2
- 0.764128 0 1 tcp 1040 ------- 0 0.0 2.0 1 2
+ 0.764128 0 1 tcp 1040 ------- 0 0.0 2.0 2 3
- 1.596128 0 1 tcp 1040 ------- 0 0.0 2.0 2 3
r 1.696128 0 1 tcp 1040 ------- 0 0.0 2.0 1 2
+ 1.696128 1 2 tcp 1040 ------- 0 0.0 2.0 1 2
- 1.696128 1 2 tcp 1040 ------- 0 0.0 2.0 1 2
r 1.897792 1 2 tcp 1040 ------- 0 0.0 2.0 1 2
+ 1.897792 2 1 ack 40 ------- 0 2.0 0.0 1 4
- 1.897792 2 1 ack 40 ------- 0 2.0 0.0 1 4
r 2.097856 2 1 ack 40 ------- 0 2.0 0.0 1 4
+ 2.097856 1 0 ack 40 ------- 0 2.0 0.0 1 4
- 2.097856 1 0 ack 40 ------- 0 2.0 0.0 1 4
r 2.229856 1 0 ack 40 ------- 0 2.0 0.0 1 4
+ 2.229856 0 1 tcp 1040 ------- 0 0.0 2.0 3 5
+ 2.229856 0 1 tcp 1040 ------- 0 0.0 2.0 4 6
- 2.428128 0 1 tcp 1040 ------- 0 0.0 2.0 3 5
r 2.528128 0 1 tcp 1040 ------- 0 0.0 2.0 2 3
+ 2.528128 1 2 tcp 1040 ------- 0 0.0 2.0 2 3
- 2.528128 1 2 tcp 1040 ------- 0 0.0 2.0 2 3
r 2.729792 1 2 tcp 1040 ------- 0 0.0 2.0 2 3
+ 2.729792 2 1 ack 40 ------- 0 2.0 0.0 2 7
- 2.729792 2 1 ack 40 ------- 0 2.0 0.0 2 7
r 2.929856 2 1 ack 40 ------- 0 2.0 0.0 2 7
+ 2.929856 1 0 ack 40 ------- 0 2.0 0.0 2 7
- 2.929856 1 0 ack 40 ------- 0 2.0 0.0 2 7
r 3.061856 1 0 ack 40 ------- 0 2.0 0.0 2 7
+ 3.061856 0 1 tcp 1040 ------- 0 0.0 2.0 5 8
+ 3.061856 0 1 tcp 1040 ------- 0 0.0 2.0 6 9
- 3.260128 0 1 tcp 1040 ------- 0 0.0 2.0 4 6
r 3.360128 0 1 tcp 1040 ------- 0 0.0 2.0 3 5
+ 3.360128 1 2 tcp 1040 ------- 0 0.0 2.0 3 5
- 3.360128 1 2 tcp 1040 ------- 0 0.0 2.0 3 5
r 3.561792 1 2 tcp 1040 ------- 0 0.0 2.0 3 5
+ 3.561792 2 1 ack 40 ------- 0 2.0 0.0 3 10
- 3.561792 2 1 ack 40 ------- 0 2.0 0.0 3 10
r 3.761856 2 1 ack 40 ------- 0 2.0 0.0 3 10
+ 3.761856 1 0 ack 40 ------- 0 2.0 0.0 3 10
- 3.761856 1 0 ack 40 ------- 0 2.0 0.0 3 10
r 3.893856 1 0 ack 40 ------- 0 2.0 0.0 3 10
+ 3.893856 0 1 tcp 1040 ------- 0 0.0 2.0 7 11
+ 3.893856 0 1 tcp 1040 ------- 0 0.0 2.0 8 12
- 4.092128 0 1 tcp 1040 ------- 0 0.0 2.0 5 8
r 4.192128 0 1 tcp 1040 ------- 0 0.0 2.0 4 6
+ 4.192128 1 2 tcp 1040 ------- 0 0.0 2.0 4 6
- 4.192128 1 2 tcp 1040 ------- 0 0.0 2.0 4 6
r 4.393792 1 2 tcp 1040 ------- 0 0.0 2.0 4 6
+ 4.393792 2 1 ack 40 ------- 0 2.0 0.0 4 13
- 4.393792 2 1 ack 40 ------- 0 2.0 0.0 4 13
r 4.593856 2 1 ack 40 ------- 0 2.0 0.0 4 13
+ 4.593856 1 0 ack 40 ------- 0 2.0 0.0 4 13
- 4.593856 1 0 ack 40 ------- 0 2.0 0.0 4 13
r 4.725856 1 0 ack 40 ------- 0 2.0 0.0 4 13
+ 4.725856 0 1 tcp 1040 ------- 0 0.0 2.0 9 14
+ 4.725856 0 1 tcp 1040 ------- 0 0.0 2.0 10 15
- 4.924128 0 1 tcp 1040 ------- 0 0.0 2.0 6 9
r 5.024128 0 1 tcp 1040 ------- 0 0.0 2.0 5 8
+ 5.024128 1 2 tcp 1040 ------- 0 0.0 2.0 5 8
- 5.024128 1 2 tcp 1040 ------- 0 0.0 2.0 5 8
r 5.225792 1 2 tcp 1040 ------- 0 0.0 2.0 5 8
+ 5.225792 2 1 ack 40 ------- 0 2.0 0.0 5 16
- 5.225792 2 1 ack 40 ------- 0 2.0 0.0 5 16
r 5.425856 2 1 ack 40 ------- 0 2.0 0.0 5 16
+ 5.425856 1 0 ack 40 ------- 0 2.0 0.0 5 16
- 5.425856 1 0 ack 40 ------- 0 2.0 0.0 5 16
r 5.557856 1 0 ack 40 ------- 0 2.0 0.0 5 16
+ 5.557856 0 1 tcp 1040 ------- 0 0.0 2.0 11 17
+ 5.557856 0 1 tcp 1040 ------- 0 0.0 2.0 12 18
- 5.756128 0 1 tcp 1040 ------- 0 0.0 2.0 7 11
r 5.856128 0 1 tcp 1040 ------- 0 0.0 2.0 6 9
+ 5.856128 1 2 tcp 1040 ------- 0 0.0 2.0 6 9
- 5.856128 1 2 tcp 1040 ------- 0 0.0 2.0 6 9
r 6.057792 1 2 tcp 1040 ------- 0 0.0 2.0 6 9
+ 6.057792 2 1 ack 40 ------- 0 2.0 0.0 6 19
- 6.057792 2 1 ack 40 ------- 0 2.0 0.0 6 19
r 6.257856 2 1 ack 40 ------- 0 2.0 0.0 6 19
+ 6.257856 1 0 ack 40 ------- 0 2.0 0.0 6 19
- 6.257856 1 0 ack 40 ------- 0 2.0 0.0 6 19
r 6.389856 1 0 ack 40 ------- 0 2.0 0.0 6 19
+ 6.389856 0 1 tcp 1040 ------- 0 0.0 2.0 13 20
+ 6.389856 0 1 tcp 1040 ------- 0 0.0 2.0 14 21
- 6.588128 0 1 tcp 1040 ------- 0 0.0 2.0 8 12
r 6.688128 0 1 tcp 1040 ------- 0 0.0 2.0 7 11
+ 6.688128 1 2 tcp 1040 ------- 0 0.0 2.0 7 11
- 6.688128 1 2 tcp 1040 ------- 0 0.0 2.0 7 11
r 6.889792 1 2 tcp 1040 ------- 0 0.0 2.0 7 11
+ 6.889792 2 1 ack 40 ------- 0 2.0 0.0 7 22
- 6.889792 2 1 ack 40 ------- 0 2.0 0.0 7 22
r 7.089856 2 1 ack 40 ------- 0 2.0 0.0 7 22
+ 7.089856 1 0 ack 40 ------- 0 2.0 0.0 7 22
- 7.089856 1 0 ack 40 ------- 0 2.0 0.0 7 22
r 7.221856 1 0 ack 40 ------- 0 2.0 0.0 7 22
+ 7.221856 0 1 tcp 1040 ------- 0 0.0 2.0 15 23
+ 7.221856 0 1 tcp 1040 ------- 0 0.0 2.0 16 24
- 7.420128 0 1 tcp 1040 ------- 0 0.0 2.0 9 14
r 7.520128 0 1 tcp 1040 ------- 0 0.0 2.0 8 12
+ 7.520128 1 2 tcp 1040 ------- 0 0.0 2.0 8 12
- 7.520128 1 2 tcp 1040 ------- 0 0.0 2.0 8 12
r 7.721792 1 2 tcp 1040 ------- 0 0.0 2.0 8 12
+ 7.721792 2 1 ack 40 ------- 0 2.0 0.0 8 25
- 7.721792 2 1 ack 40 ------- 0 2.0 0.0 8 25
r 7.921856 2 1 ack 40 ------- 0 2.0 0.0 8 25
+ 7.921856 1 0 ack 40 ------- 0 2.0 0.0 8 25
- 7.921856 1 0 ack 40 ------- 0 2.0 0.0 8 25
r 8.053856 1 0 ack 40 ------- 0 2.0 0.0 8 25
+ 8.053856 0 1 tcp 1040 ------- 0 0.0 2.0 17 26
+ 8.053856 0 1 tcp 1040 ------- 0 0.0 2.0 18 27
- 8.252128 0 1 tcp 1040 ------- 0 0.0 2.0 10 15
r 8.352128 0 1 tcp 1040 ------- 0 0.0 2.0 9 14
+ 8.352128 1 2 tcp 1040 ------- 0 0.0 2.0 9 14
- 8.352128 1 2 tcp 1040 ------- 0 0.0 2.0 9 14
r 8.553792 1 2 tcp 1040 ------- 0 0.0 2.0 9 14
+ 8.553792 2 1 ack 40 ------- 0 2.0 0.0 9 28
- 8.553792 2 1 ack 40 ------- 0 2.0 0.0 9 28
r 8.753856 2 1 ack 40 ------- 0 2.0 0.0 9 28
+ 8.753856 1 0 ack 40 ------- 0 2.0 0.0 9 28
- 8.753856 1 0 ack 40 ------- 0 2.0 0.0 9 28
r 8.885856 1 0 ack 40 ------- 0 2.0 0.0 9 28
+ 8.885856 0 1 tcp 1040 ------- 0 0.0 2.0 19 29
+ 8.885856 0 1 tcp 1040 ------- 0 0.0 2.0 20 30
d 8.885856 0 1 tcp 1040 ------- 0 0.0 2.0 20 30
- 9.084128 0 1 tcp 1040 ------- 0 0.0 2.0 11 17
r 9.184128 0 1 tcp 1040 ------- 0 0.0 2.0 10 15
+ 9.184128 1 2 tcp 1040 ------- 0 0.0 2.0 10 15
- 9.184128 1 2 tcp 1040 ------- 0 0.0 2.0 10 15
r 9.385792 1 2 tcp 1040 ------- 0 0.0 2.0 10 15
+ 9.385792 2 1 ack 40 ------- 0 2.0 0.0 10 31
- 9.385792 2 1 ack 40 ------- 0 2.0 0.0 10 31
r 9.585856 2 1 ack 40 ------- 0 2.0 0.0 10 31
+ 9.585856 1 0 ack 40 ------- 0 2.0 0.0 10 31
- 9.585856 1 0 ack 40 ------- 0 2.0 0.0 10 31
r 9.717856 1 0 ack 40 ------- 0 2.0 0.0 10 31
+ 9.717856 0 1 tcp 1040 ------- 0 0.0 2.0 21 32
+ 9.717856 0 1 tcp 1040 ------- 0 0.0 2.0 22 33
d 9.717856 0 1 tcp 1040 ------- 0 0.0 2.0 22 33
- 9.916128 0 1 tcp 1040 ------- 0 0.0 2.0 12 18
r 10.016128 0 1 tcp 1040 ------- 0 0.0 2.0 11 17
+ 10.016128 1 2 tcp 1040 ------- 0 0.0 2.0 11 17
- 10.016128 1 2 tcp 1040 ------- 0 0.0 2.0 11 17
