+ 0.1 0 2 cbr 500 ------- 0 0.0 2.0 0 0
- 0.1 0 2 cbr 500 ------- 0 0.0 2.0 0 0
+ 0.1 1 2 cbr 500 ------- 0 1.0 2.0 0 1
- 0.1 1 2 cbr 500 ------- 0 1.0 2.0 0 1
+ 0.1 2 3 cbr 500 ------- 0 2.1 3.0 0 2
- 0.1 2 3 cbr 500 ------- 0 2.1 3.0 0 2
r 0.10504 1 2 cbr 500 ------- 0 1.0 2.0 0 1
r 0.11002 0 2 cbr 500 ------- 0 0.0 2.0 0 0
r 1.104 2 3 cbr 500 ------- 0 2.1 3.0 0 2
