+ 0.5 0 2 tcp 40 ------- 1 0.0 2.0 0 0
- 0.5 0 2 tcp 40 ------- 1 0.0 2.0 0 0
r 0.52032 0 2 tcp 40 ------- 1 0.0 2.0 0 0
+ 0.52032 2 0 ack 40 ------- 1 2.0 0.0 0 1
- 0.52032 2 0 ack 40 ------- 1 2.0 0.0 0 1
r 0.54064 2 0 ack 40 ------- 1 2.0 0.0 0 1
+ 0.54064 0 2 tcp 1040 ------- 1 0.0 2.0 1 2
- 0.54064 0 2 tcp 1040 ------- 1 0.0 2.0 1 2
+ 0.55 0 2 tcp 1040 ------- 1 0.0 2.0 2 3
- 0.55 0 2 tcp 1040 ------- 1 0.0 2.0 2 3
r 0.56896 0 2 tcp 1040 ------- 1 0.0 2.0 1 2
+ 0.56896 2 0 ack 40 ------- 1 2.0 0.0 1 4
- 0.56896 2 0 ack 40 ------- 1 2.0 0.0 1 4
r 0.57832 0 2 tcp 1040 ------- 1 0.0 2.0 2 3
+ 0.57832 2 0 ack 40 ------- 1 2.0 0.0 2 5
- 0.57832 2 0 ack 40 ------- 1 2.0 0.0 2 5
r 0.58928 2 0 ack 40 ------- 1 2.0 0.0 1 4
r 0.59864 2 0 ack 40 ------- 1 2.0 0.0 2 5
+ 0.6 0 2 tcp 1040 ------- 1 0.0 2.0 3 6
- 0.6 0 2 tcp 1040 ------- 1 0.0 2.0 3 6
r 0.62832 0 2 tcp 1040 ------- 1 0.0 2.0 3 6
+ 0.62832 2 0 ack 40 ------- 1 2.0 0.0 3 7
- 0.62832 2 0 ack 40 ------- 1 2.0 0.0 3 7
r 0.64864 2 0 ack 40 ------- 1 2.0 0.0 3 7
+ 0.65 0 2 tcp 1040 ------- 1 0.0 2.0 4 8
- 0.65 0 2 tcp 1040 ------- 1 0.0 2.0 4 8
r 0.67832 0 2 tcp 1040 ------- 1 0.0 2.0 4 8
+ 0.67832 2 0 ack 40 ------- 1 2.0 0.0 4 9
- 0.67832 2 0 ack 40 ------- 1 2.0 0.0 4 9
r 0.69864 2 0 ack 40 ------- 1 2.0 0.0 4 9
+ 0.7 0 2 tcp 1040 ------- 1 0.0 2.0 5 10
- 0.7 0 2 tcp 1040 ------- 1 0.0 2.0 5 10
r 0.72832 0 2 tcp 1040 ------- 1 0.0 2.0 5 10
+ 0.72832 2 0 ack 40 ------- 1 2.0 0.0 5 11
- 0.72832 2 0 ack 40 ------- 1 2.0 0.0 5 11
r 0.74864 2 0 ack 40 ------- 1 2.0 0.0 5 11
+ 0.75 0 2 tcp 1040 ------- 1 0.0 2.0 6 12
- 0.75 0 2 tcp 1040 ------- 1 0.0 2.0 6 12
r 0.77832 0 2 tcp 1040 ------- 1 0.0 2.0 6 12
+ 0.77832 2 0 ack 40 ------- 1 2.0 0.0 6 13
- 0.77832 2 0 ack 40 ------- 1 2.0 0.0 6 13
r 0.79864 2 0 ack 40 ------- 1 2.0 0.0 6 13
+ 0.8 0 2 tcp 1040 ------- 1 0.0 2.0 7 14
- 0.8 0 2 tcp 1040 ------- 1 0.0 2.0 7 14
r 0.82832 0 2 tcp 1040 ------- 1 0.0 2.0 7 14
+ 0.82832 2 0 ack 40 ------- 1 2.0 0.0 7 15
- 0.82832 2 0 ack 40 ------- 1 2.0 0.0 7 15
r 0.84864 2 0 ack 40 ------- 1 2.0 0.0 7 15
+ 0.85 0 2 tcp 1040 ------- 1 0.0 2.0 8 16
- 0.85 0 2 tcp 1040 ------- 1 0.0 2.0 8 16
r 0.87832 0 2 tcp 1040 ------- 1 0.0 2.0 8 16
+ 0.87832 2 0 ack 40 ------- 1 2.0 0.0 8 17
- 0.87832 2 0 ack 40 ------- 1 2.0 0.0 8 17
r 0.89864 2 0 ack 40 ------- 1 2.0 0.0 8 17
+ 0.9 0 2 tcp 1040 ------- 1 0.0 2.0 9 18
- 0.9 0 2 tcp 1040 ------- 1 0.0 2.0 9 18
r 0.92832 0 2 tcp 1040 ------- 1 0.0 2.0 9 18
+ 0.92832 2 0 ack 40 ------- 1 2.0 0.0 9 19
- 0.92832 2 0 ack 40 ------- 1 2.0 0.0 9 19
r 0.94864 2 0 ack 40 ------- 1 2.0 0.0 9 19
+ 0.95 0 2 tcp 1040 ------- 1 0.0 2.0 10 20
- 0.95 0 2 tcp 1040 ------- 1 0.0 2.0 10 20
r 0.97832 0 2 tcp 1040 ------- 1 0.0 2.0 10 20
+ 0.97832 2 0 ack 40 ------- 1 2.0 0.0 10 21
- 0.97832 2 0 ack 40 ------- 1 2.0 0.0 10 21
r 0.99864 2 0 ack 40 ------- 1 2.0 0.0 10 21
+ 1 0 2 tcp 1040 ------- 1 0.0 2.0 11 22
- 1 0 2 tcp 1040 ------- 1 0.0 2.0 11 22
r 1.02832 0 2 tcp 1040 ------- 1 0.0 2.0 11 22
+ 1.02832 2 0 ack 40 ------- 1 2.0 0.0 11 23
- 1.02832 2 0 ack 40 ------- 1 2.0 0.0 11 23
r 1.04864 2 0 ack 40 ------- 1 2.0 0.0 11 23
+ 1.05 0 2 tcp 1040 ------- 1 0.0 2.0 12 24
- 1.05 0 2 tcp 1040 ------- 1 0.0 2.0 12 24
r 1.07832 0 2 tcp 1040 ------- 1 0.0 2.0 12 24
+ 1.07832 2 0 ack 40 ------- 1 2.0 0.0 12 25
- 1.07832 2 0 ack 40 ------- 1 2.0 0.0 12 25
r 1.09864 2 0 ack 40 ------- 1 2.0 0.0 12 25
+ 1.1 0 2 tcp 1040 ------- 1 0.0 2.0 13 26
- 1.1 0 2 tcp 1040 ------- 1 0.0 2.0 13 26
r 1.12832 0 2 tcp 1040 ------- 1 0.0 2.0 13 26
+ 1.12832 2 0 ack 40 ------- 1 2.0 0.0 13 27
- 1.12832 2 0 ack 40 ------- 1 2.0 0.0 13 27
r 1.14864 2 0 ack 40 ------- 1 2.0 0.0 13 27
+ 1.15 0 2 tcp 1040 ------- 1 0.0 2.0 14 28
- 1.15 0 2 tcp 1040 ------- 1 0.0 2.0 14 28
r 1.17832 0 2 tcp 1040 ------- 1 0.0 2.0 14 28
+ 1.17832 2 0 ack 40 ------- 1 2.0 0.0 14 29
- 1.17832 2 0 ack 40 ------- 1 2.0 0.0 14 29
r 1.19864 2 0 ack 40 ------- 1 2.0 0.0 14 29
+ 1.2 0 2 tcp 1040 ------- 1 0.0 2.0 15 30
- 1.2 0 2 tcp 1040 ------- 1 0.0 2.0 15 30
r 1.22832 0 2 tcp 1040 ------- 1 0.0 2.0 15 30
+ 1.22832 2 0 ack 40 ------- 1 2.0 0.0 15 31
- 1.22832 2 0 ack 40 ------- 1 2.0 0.0 15 31
r 1.24864 2 0 ack 40 ------- 1 2.0 0.0 15 31
+ 1.25 0 2 tcp 1040 ------- 1 0.0 2.0 16 32
- 1.25 0 2 tcp 1040 ------- 1 0.0 2.0 16 32
r 1.27832 0 2 tcp 1040 ------- 1 0.0 2.0 16 32
+ 1.27832 2 0 ack 40 ------- 1 2.0 0.0 16 33
- 1.27832 2 0 ack 40 ------- 1 2.0 0.0 16 33
r 1.29864 2 0 ack 40 ------- 1 2.0 0.0 16 33
+ 1.3 0 2 tcp 1040 ------- 1 0.0 2.0 17 34
- 1.3 0 2 tcp 1040 ------- 1 0.0 2.0 17 34
r 1.32832 0 2 tcp 1040 ------- 1 0.0 2.0 17 34
+ 1.32832 2 0 ack 40 ------- 1 2.0 0.0 17 35
- 1.32832 2 0 ack 40 ------- 1 2.0 0.0 17 35
r 1.34864 2 0 ack 40 ------- 1 2.0 0.0 17 35
+ 1.35 0 2 tcp 1040 ------- 1 0.0 2.0 18 36
- 1.35 0 2 tcp 1040 ------- 1 0.0 2.0 18 36
r 1.37832 0 2 tcp 1040 ------- 1 0.0 2.0 18 36
+ 1.37832 2 0 ack 40 ------- 1 2.0 0.0 18 37
- 1.37832 2 0 ack 40 ------- 1 2.0 0.0 18 37
r 1.39864 2 0 ack 40 ------- 1 2.0 0.0 18 37
+ 1.4 0 2 tcp 1040 ------- 1 0.0 2.0 19 38
- 1.4 0 2 tcp 1040 ------- 1 0.0 2.0 19 38
r 1.42832 0 2 tcp 1040 ------- 1 0.0 2.0 19 38
+ 1.42832 2 0 ack 40 ------- 1 2.0 0.0 19 39
- 1.42832 2 0 ack 40 ------- 1 2.0 0.0 19 39
r 1.44864 2 0 ack 40 ------- 1 2.0 0.0 19 39
+ 1.45 0 2 tcp 1040 ------- 1 0.0 2.0 20 40
- 1.45 0 2 tcp 1040 ------- 1 0.0 2.0 20 40
r 1.47832 0 2 tcp 1040 ------- 1 0.0 2.0 20 40
+ 1.47832 2 0 ack 40 ------- 1 2.0 0.0 20 41
- 1.47832 2 0 ack 40 ------- 1 2.0 0.0 20 41
r 1.49864 2 0 ack 40 ------- 1 2.0 0.0 20 41
+ 1.5 0 2 tcp 1040 ------- 1 0.0 2.0 21 42
- 1.5 0 2 tcp 1040 ------- 1 0.0 2.0 21 42
r 1.52832 0 2 tcp 1040 ------- 1 0.0 2.0 21 42
+ 1.52832 2 0 ack 40 ------- 1 2.0 0.0 21 43
- 1.52832 2 0 ack 40 ------- 1 2.0 0.0 21 43
r 1.54864 2 0 ack 40 ------- 1 2.0 0.0 21 43
+ 1.55 0 2 tcp 1040 ------- 1 0.0 2.0 22 44
- 1.55 0 2 tcp 1040 ------- 1 0.0 2.0 22 44
r 1.57832 0 2 tcp 1040 ------- 1 0.0 2.0 22 44
+ 1.57832 2 0 ack 40 ------- 1 2.0 0.0 22 45
- 1.57832 2 0 ack 40 ------- 1 2.0 0.0 22 45
r 1.59864 2 0 ack 40 ------- 1 2.0 0.0 22 45
+ 1.6 0 2 tcp 1040 ------- 1 0.0 2.0 23 46
- 1.6 0 2 tcp 1040 ------- 1 0.0 2.0 23 46
r 1.62832 0 2 tcp 1040 ------- 1 0.0 2.0 23 46
+ 1.62832 2 0 ack 40 ------- 1 2.0 0.0 23 47
- 1.62832 2 0 ack 40 ------- 1 2.0 0.0 23 47
r 1.64864 2 0 ack 40 ------- 1 2.0 0.0 23 47
+ 1.65 0 2 tcp 1040 ------- 1 0.0 2.0 24 48
- 1.65 0 2 tcp 1040 ------- 1 0.0 2.0 24 48
r 1.67832 0 2 tcp 1040 ------- 1 0.0 2.0 24 48
+ 1.67832 2 0 ack 40 ------- 1 2.0 0.0 24 49
- 1.67832 2 0 ack 40 ------- 1 2.0 0.0 24 49
r 1.69864 2 0 ack 40 ------- 1 2.0 0.0 24 49
+ 1.7 0 2 tcp 1040 ------- 1 0.0 2.0 25 50
- 1.7 0 2 tcp 1040 ------- 1 0.0 2.0 25 50
r 1.72832 0 2 tcp 1040 ------- 1 0.0 2.0 25 50
+ 1.72832 2 0 ack 40 ------- 1 2.0 0.0 25 51
- 1.72832 2 0 ack 40 ------- 1 2.0 0.0 25 51
r 1.74864 2 0 ack 40 ------- 1 2.0 0.0 25 51
+ 1.75 0 2 tcp 1040 ------- 1 0.0 2.0 26 52
- 1.75 0 2 tcp 1040 ------- 1 0.0 2.0 26 52
r 1.77832 0 2 tcp 1040 ------- 1 0.0 2.0 26 52
+ 1.77832 2 0 ack 40 ------- 1 2.0 0.0 26 53
- 1.77832 2 0 ack 40 ------- 1 2.0 0.0 26 53
r 1.79864 2 0 ack 40 ------- 1 2.0 0.0 26 53
+ 1.8 0 2 tcp 1040 ------- 1 0.0 2.0 27 54
- 1.8 0 2 tcp 1040 ------- 1 0.0 2.0 27 54
r 1.82832 0 2 tcp 1040 ------- 1 0.0 2.0 27 54
+ 1.82832 2 0 ack 40 ------- 1 2.0 0.0 27 55
- 1.82832 2 0 ack 40 ------- 1 2.0 0.0 27 55
r 1.84864 2 0 ack 40 ------- 1 2.0 0.0 27 55
+ 1.85 0 2 tcp 1040 ------- 1 0.0 2.0 28 56
- 1.85 0 2 tcp 1040 ------- 1 0.0 2.0 28 56
r 1.87832 0 2 tcp 1040 ------- 1 0.0 2.0 28 56
+ 1.87832 2 0 ack 40 ------- 1 2.0 0.0 28 57
- 1.87832 2 0 ack 40 ------- 1 2.0 0.0 28 57
r 1.89864 2 0 ack 40 ------- 1 2.0 0.0 28 57
+ 1.9 0 2 tcp 1040 ------- 1 0.0 2.0 29 58
- 1.9 0 2 tcp 1040 ------- 1 0.0 2.0 29 58
r 1.92832 0 2 tcp 1040 ------- 1 0.0 2.0 29 58
+ 1.92832 2 0 ack 40 ------- 1 2.0 0.0 29 59
- 1.92832 2 0 ack 40 ------- 1 2.0 0.0 29 59
r 1.94864 2 0 ack 40 ------- 1 2.0 0.0 29 59
+ 1.95 0 2 tcp 1040 ------- 1 0.0 2.0 30 60
- 1.95 0 2 tcp 1040 ------- 1 0.0 2.0 30 60
r 1.97832 0 2 tcp 1040 ------- 1 0.0 2.0 30 60
+ 1.97832 2 0 ack 40 ------- 1 2.0 0.0 30 61
- 1.97832 2 0 ack 40 ------- 1 2.0 0.0 30 61
r 1.99864 2 0 ack 40 ------- 1 2.0 0.0 30 61
+ 2 0 2 tcp 1040 ------- 1 0.0 2.0 31 62
- 2 0 2 tcp 1040 ------- 1 0.0 2.0 31 62
r 2.02832 0 2 tcp 1040 ------- 1 0.0 2.0 31 62
+ 2.02832 2 0 ack 40 ------- 1 2.0 0.0 31 63
- 2.02832 2 0 ack 40 ------- 1 2.0 0.0 31 63
r 2.04864 2 0 ack 40 ------- 1 2.0 0.0 31 63
+ 2.05 0 2 tcp 1040 ------- 1 0.0 2.0 32 64
- 2.05 0 2 tcp 1040 ------- 1 0.0 2.0 32 64
r 2.07832 0 2 tcp 1040 ------- 1 0.0 2.0 32 64
+ 2.07832 2 0 ack 40 ------- 1 2.0 0.0 32 65
- 2.07832 2 0 ack 40 ------- 1 2.0 0.0 32 65
r 2.09864 2 0 ack 40 ------- 1 2.0 0.0 32 65
+ 2.1 0 2 tcp 1040 ------- 1 0.0 2.0 33 66
- 2.1 0 2 tcp 1040 ------- 1 0.0 2.0 33 66
r 2.12832 0 2 tcp 1040 ------- 1 0.0 2.0 33 66
+ 2.12832 2 0 ack 40 ------- 1 2.0 0.0 33 67
- 2.12832 2 0 ack 40 ------- 1 2.0 0.0 33 67
r 2.14864 2 0 ack 40 ------- 1 2.0 0.0 33 67
+ 2.15 0 2 tcp 1040 ------- 1 0.0 2.0 34 68
- 2.15 0 2 tcp 1040 ------- 1 0.0 2.0 34 68
r 2.17832 0 2 tcp 1040 ------- 1 0.0 2.0 34 68
+ 2.17832 2 0 ack 40 ------- 1 2.0 0.0 34 69
- 2.17832 2 0 ack 40 ------- 1 2.0 0.0 34 69
r 2.19864 2 0 ack 40 ------- 1 2.0 0.0 34 69
+ 2.2 0 2 tcp 1040 ------- 1 0.0 2.0 35 70
- 2.2 0 2 tcp 1040 ------- 1 0.0 2.0 35 70
r 2.22832 0 2 tcp 1040 ------- 1 0.0 2.0 35 70
+ 2.22832 2 0 ack 40 ------- 1 2.0 0.0 35 71
- 2.22832 2 0 ack 40 ------- 1 2.0 0.0 35 71
r 2.24864 2 0 ack 40 ------- 1 2.0 0.0 35 71
+ 2.25 0 2 tcp 1040 ------- 1 0.0 2.0 36 72
- 2.25 0 2 tcp 1040 ------- 1 0.0 2.0 36 72
r 2.27832 0 2 tcp 1040 ------- 1 0.0 2.0 36 72
+ 2.27832 2 0 ack 40 ------- 1 2.0 0.0 36 73
- 2.27832 2 0 ack 40 ------- 1 2.0 0.0 36 73
r 2.29864 2 0 ack 40 ------- 1 2.0 0.0 36 73
+ 2.3 0 2 tcp 1040 ------- 1 0.0 2.0 37 74
- 2.3 0 2 tcp 1040 ------- 1 0.0 2.0 37 74
r 2.32832 0 2 tcp 1040 ------- 1 0.0 2.0 37 74
+ 2.32832 2 0 ack 40 ------- 1 2.0 0.0 37 75
- 2.32832 2 0 ack 40 ------- 1 2.0 0.0 37 75
r 2.34864 2 0 ack 40 ------- 1 2.0 0.0 37 75
+ 2.35 0 2 tcp 1040 ------- 1 0.0 2.0 38 76
- 2.35 0 2 tcp 1040 ------- 1 0.0 2.0 38 76
r 2.37832 0 2 tcp 1040 ------- 1 0.0 2.0 38 76
+ 2.37832 2 0 ack 40 ------- 1 2.0 0.0 38 77
- 2.37832 2 0 ack 40 ------- 1 2.0 0.0 38 77
r 2.39864 2 0 ack 40 ------- 1 2.0 0.0 38 77
+ 2.4 0 2 tcp 1040 ------- 1 0.0 2.0 39 78
- 2.4 0 2 tcp 1040 ------- 1 0.0 2.0 39 78
r 2.42832 0 2 tcp 1040 ------- 1 0.0 2.0 39 78
+ 2.42832 2 0 ack 40 ------- 1 2.0 0.0 39 79
- 2.42832 2 0 ack 40 ------- 1 2.0 0.0 39 79
r 2.44864 2 0 ack 40 ------- 1 2.0 0.0 39 79
+ 2.45 0 2 tcp 1040 ------- 1 0.0 2.0 40 80
- 2.45 0 2 tcp 1040 ------- 1 0.0 2.0 40 80
r 2.47832 0 2 tcp 1040 ------- 1 0.0 2.0 40 80
+ 2.47832 2 0 ack 40 ------- 1 2.0 0.0 40 81
- 2.47832 2 0 ack 40 ------- 1 2.0 0.0 40 81
r 2.49864 2 0 ack 40 ------- 1 2.0 0.0 40 81
+ 2.5 0 2 tcp 1040 ------- 1 0.0 2.0 41 82
- 2.5 0 2 tcp 1040 ------- 1 0.0 2.0 41 82
r 2.52832 0 2 tcp 1040 ------- 1 0.0 2.0 41 82
+ 2.52832 2 0 ack 40 ------- 1 2.0 0.0 41 83
- 2.52832 2 0 ack 40 ------- 1 2.0 0.0 41 83
r 2.54864 2 0 ack 40 ------- 1 2.0 0.0 41 83
+ 2.55 0 2 tcp 1040 ------- 1 0.0 2.0 42 84
- 2.55 0 2 tcp 1040 ------- 1 0.0 2.0 42 84
r 2.57832 0 2 tcp 1040 ------- 1 0.0 2.0 42 84
+ 2.57832 2 0 ack 40 ------- 1 2.0 0.0 42 85
- 2.57832 2 0 ack 40 ------- 1 2.0 0.0 42 85
r 2.59864 2 0 ack 40 ------- 1 2.0 0.0 42 85
+ 2.6 0 2 tcp 1040 ------- 1 0.0 2.0 43 86
- 2.6 0 2 tcp 1040 ------- 1 0.0 2.0 43 86
r 2.62832 0 2 tcp 1040 ------- 1 0.0 2.0 43 86
+ 2.62832 2 0 ack 40 ------- 1 2.0 0.0 43 87
- 2.62832 2 0 ack 40 ------- 1 2.0 0.0 43 87
r 2.64864 2 0 ack 40 ------- 1 2.0 0.0 43 87
+ 2.65 0 2 tcp 1040 ------- 1 0.0 2.0 44 88
- 2.65 0 2 tcp 1040 ------- 1 0.0 2.0 44 88
r 2.67832 0 2 tcp 1040 ------- 1 0.0 2.0 44 88
+ 2.67832 2 0 ack 40 ------- 1 2.0 0.0 44 89
- 2.67832 2 0 ack 40 ------- 1 2.0 0.0 44 89
r 2.69864 2 0 ack 40 ------- 1 2.0 0.0 44 89
+ 2.7 0 2 tcp 1040 ------- 1 0.0 2.0 45 90
- 2.7 0 2 tcp 1040 ------- 1 0.0 2.0 45 90
r 2.72832 0 2 tcp 1040 ------- 1 0.0 2.0 45 90
+ 2.72832 2 0 ack 40 ------- 1 2.0 0.0 45 91
- 2.72832 2 0 ack 40 ------- 1 2.0 0.0 45 91
r 2.74864 2 0 ack 40 ------- 1 2.0 0.0 45 91
+ 2.75 0 2 tcp 1040 ------- 1 0.0 2.0 46 92
- 2.75 0 2 tcp 1040 ------- 1 0.0 2.0 46 92
r 2.77832 0 2 tcp 1040 ------- 1 0.0 2.0 46 92
+ 2.77832 2 0 ack 40 ------- 1 2.0 0.0 46 93
- 2.77832 2 0 ack 40 ------- 1 2.0 0.0 46 93
r 2.79864 2 0 ack 40 ------- 1 2.0 0.0 46 93
+ 2.8 0 2 tcp 1040 ------- 1 0.0 2.0 47 94
- 2.8 0 2 tcp 1040 ------- 1 0.0 2.0 47 94
r 2.82832 0 2 tcp 1040 ------- 1 0.0 2.0 47 94
+ 2.82832 2 0 ack 40 ------- 1 2.0 0.0 47 95
- 2.82832 2 0 ack 40 ------- 1 2.0 0.0 47 95
r 2.84864 2 0 ack 40 ------- 1 2.0 0.0 47 95
+ 2.85 0 2 tcp 1040 ------- 1 0.0 2.0 48 96
- 2.85 0 2 tcp 1040 ------- 1 0.0 2.0 48 96
r 2.87832 0 2 tcp 1040 ------- 1 0.0 2.0 48 96
+ 2.87832 2 0 ack 40 ------- 1 2.0 0.0 48 97
- 2.87832 2 0 ack 40 ------- 1 2.0 0.0 48 97
r 2.89864 2 0 ack 40 ------- 1 2.0 0.0 48 97
+ 2.9 0 2 tcp 1040 ------- 1 0.0 2.0 49 98
- 2.9 0 2 tcp 1040 ------- 1 0.0 2.0 49 98
r 2.92832 0 2 tcp 1040 ------- 1 0.0 2.0 49 98
+ 2.92832 2 0 ack 40 ------- 1 2.0 0.0 49 99
- 2.92832 2 0 ack 40 ------- 1 2.0 0.0 49 99
r 2.94864 2 0 ack 40 ------- 1 2.0 0.0 49 99
+ 2.95 0 2 tcp 1040 ------- 1 0.0 2.0 50 100
- 2.95 0 2 tcp 1040 ------- 1 0.0 2.0 50 100
r 2.97832 0 2 tcp 1040 ------- 1 0.0 2.0 50 100
+ 2.97832 2 0 ack 40 ------- 1 2.0 0.0 50 101
- 2.97832 2 0 ack 40 ------- 1 2.0 0.0 50 101
r 2.99864 2 0 ack 40 ------- 1 2.0 0.0 50 101
+ 3 0 2 tcp 1040 ------- 1 0.0 2.0 51 102
- 3 0 2 tcp 1040 ------- 1 0.0 2.0 51 102
r 3.02832 0 2 tcp 1040 ------- 1 0.0 2.0 51 102
+ 3.02832 2 0 ack 40 ------- 1 2.0 0.0 51 103
- 3.02832 2 0 ack 40 ------- 1 2.0 0.0 51 103
r 3.04864 2 0 ack 40 ------- 1 2.0 0.0 51 103
+ 3.05 0 2 tcp 1040 ------- 1 0.0 2.0 52 104
- 3.05 0 2 tcp 1040 ------- 1 0.0 2.0 52 104
r 3.07832 0 2 tcp 1040 ------- 1 0.0 2.0 52 104
+ 3.07832 2 0 ack 40 ------- 1 2.0 0.0 52 105
- 3.07832 2 0 ack 40 ------- 1 2.0 0.0 52 105
r 3.09864 2 0 ack 40 ------- 1 2.0 0.0 52 105
+ 3.1 0 2 tcp 1040 ------- 1 0.0 2.0 53 106
- 3.1 0 2 tcp 1040 ------- 1 0.0 2.0 53 106
r 3.12832 0 2 tcp 1040 ------- 1 0.0 2.0 53 106
+ 3.12832 2 0 ack 40 ------- 1 2.0 0.0 53 107
- 3.12832 2 0 ack 40 ------- 1 2.0 0.0 53 107
r 3.14864 2 0 ack 40 ------- 1 2.0 0.0 53 107
+ 3.15 0 2 tcp 1040 ------- 1 0.0 2.0 54 108
- 3.15 0 2 tcp 1040 ------- 1 0.0 2.0 54 108
r 3.17832 0 2 tcp 1040 ------- 1 0.0 2.0 54 108
+ 3.17832 2 0 ack 40 ------- 1 2.0 0.0 54 109
- 3.17832 2 0 ack 40 ------- 1 2.0 0.0 54 109
r 3.19864 2 0 ack 40 ------- 1 2.0 0.0 54 109
+ 3.2 0 2 tcp 1040 ------- 1 0.0 2.0 55 110
- 3.2 0 2 tcp 1040 ------- 1 0.0 2.0 55 110
r 3.22832 0 2 tcp 1040 ------- 1 0.0 2.0 55 110
+ 3.22832 2 0 ack 40 ------- 1 2.0 0.0 55 111
- 3.22832 2 0 ack 40 ------- 1 2.0 0.0 55 111
r 3.24864 2 0 ack 40 ------- 1 2.0 0.0 55 111
+ 3.25 0 2 tcp 1040 ------- 1 0.0 2.0 56 112
- 3.25 0 2 tcp 1040 ------- 1 0.0 2.0 56 112
r 3.27832 0 2 tcp 1040 ------- 1 0.0 2.0 56 112
+ 3.27832 2 0 ack 40 ------- 1 2.0 0.0 56 113
- 3.27832 2 0 ack 40 ------- 1 2.0 0.0 56 113
r 3.29864 2 0 ack 40 ------- 1 2.0 0.0 56 113
+ 3.3 0 2 tcp 1040 ------- 1 0.0 2.0 57 114
- 3.3 0 2 tcp 1040 ------- 1 0.0 2.0 57 114
r 3.32832 0 2 tcp 1040 ------- 1 0.0 2.0 57 114
+ 3.32832 2 0 ack 40 ------- 1 2.0 0.0 57 115
- 3.32832 2 0 ack 40 ------- 1 2.0 0.0 57 115
r 3.34864 2 0 ack 40 ------- 1 2.0 0.0 57 115
+ 3.35 0 2 tcp 1040 ------- 1 0.0 2.0 58 116
- 3.35 0 2 tcp 1040 ------- 1 0.0 2.0 58 116
r 3.37832 0 2 tcp 1040 ------- 1 0.0 2.0 58 116
+ 3.37832 2 0 ack 40 ------- 1 2.0 0.0 58 117
- 3.37832 2 0 ack 40 ------- 1 2.0 0.0 58 117
r 3.39864 2 0 ack 40 ------- 1 2.0 0.0 58 117
+ 3.4 0 2 tcp 1040 ------- 1 0.0 2.0 59 118
- 3.4 0 2 tcp 1040 ------- 1 0.0 2.0 59 118
r 3.42832 0 2 tcp 1040 ------- 1 0.0 2.0 59 118
+ 3.42832 2 0 ack 40 ------- 1 2.0 0.0 59 119
- 3.42832 2 0 ack 40 ------- 1 2.0 0.0 59 119
r 3.44864 2 0 ack 40 ------- 1 2.0 0.0 59 119
+ 3.45 0 2 tcp 1040 ------- 1 0.0 2.0 60 120
- 3.45 0 2 tcp 1040 ------- 1 0.0 2.0 60 120
r 3.47832 0 2 tcp 1040 ------- 1 0.0 2.0 60 120
+ 3.47832 2 0 ack 40 ------- 1 2.0 0.0 60 121
- 3.47832 2 0 ack 40 ------- 1 2.0 0.0 60 121
r 3.49864 2 0 ack 40 ------- 1 2.0 0.0 60 121
+ 3.5 0 2 tcp 1040 ------- 1 0.0 2.0 61 122
- 3.5 0 2 tcp 1040 ------- 1 0.0 2.0 61 122
r 3.52832 0 2 tcp 1040 ------- 1 0.0 2.0 61 122
+ 3.52832 2 0 ack 40 ------- 1 2.0 0.0 61 123
- 3.52832 2 0 ack 40 ------- 1 2.0 0.0 61 123
r 3.54864 2 0 ack 40 ------- 1 2.0 0.0 61 123
+ 3.55 0 2 tcp 1040 ------- 1 0.0 2.0 62 124
- 3.55 0 2 tcp 1040 ------- 1 0.0 2.0 62 124
r 3.57832 0 2 tcp 1040 ------- 1 0.0 2.0 62 124
+ 3.57832 2 0 ack 40 ------- 1 2.0 0.0 62 125
- 3.57832 2 0 ack 40 ------- 1 2.0 0.0 62 125
r 3.59864 2 0 ack 40 ------- 1 2.0 0.0 62 125
+ 3.6 0 2 tcp 1040 ------- 1 0.0 2.0 63 126
- 3.6 0 2 tcp 1040 ------- 1 0.0 2.0 63 126
r 3.62832 0 2 tcp 1040 ------- 1 0.0 2.0 63 126
+ 3.62832 2 0 ack 40 ------- 1 2.0 0.0 63 127
- 3.62832 2 0 ack 40 ------- 1 2.0 0.0 63 127
r 3.64864 2 0 ack 40 ------- 1 2.0 0.0 63 127
+ 3.65 0 2 tcp 1040 ------- 1 0.0 2.0 64 128
- 3.65 0 2 tcp 1040 ------- 1 0.0 2.0 64 128
r 3.67832 0 2 tcp 1040 ------- 1 0.0 2.0 64 128
+ 3.67832 2 0 ack 40 ------- 1 2.0 0.0 64 129
- 3.67832 2 0 ack 40 ------- 1 2.0 0.0 64 129
r 3.69864 2 0 ack 40 ------- 1 2.0 0.0 64 129
+ 3.7 0 2 tcp 1040 ------- 1 0.0 2.0 65 130
- 3.7 0 2 tcp 1040 ------- 1 0.0 2.0 65 130
r 3.72832 0 2 tcp 1040 ------- 1 0.0 2.0 65 130
+ 3.72832 2 0 ack 40 ------- 1 2.0 0.0 65 131
- 3.72832 2 0 ack 40 ------- 1 2.0 0.0 65 131
r 3.74864 2 0 ack 40 ------- 1 2.0 0.0 65 131
+ 3.75 0 2 tcp 1040 ------- 1 0.0 2.0 66 132
- 3.75 0 2 tcp 1040 ------- 1 0.0 2.0 66 132
r 3.77832 0 2 tcp 1040 ------- 1 0.0 2.0 66 132
+ 3.77832 2 0 ack 40 ------- 1 2.0 0.0 66 133
- 3.77832 2 0 ack 40 ------- 1 2.0 0.0 66 133
r 3.79864 2 0 ack 40 ------- 1 2.0 0.0 66 133
+ 3.8 0 2 tcp 1040 ------- 1 0.0 2.0 67 134
- 3.8 0 2 tcp 1040 ------- 1 0.0 2.0 67 134
r 3.82832 0 2 tcp 1040 ------- 1 0.0 2.0 67 134
+ 3.82832 2 0 ack 40 ------- 1 2.0 0.0 67 135
- 3.82832 2 0 ack 40 ------- 1 2.0 0.0 67 135
r 3.84864 2 0 ack 40 ------- 1 2.0 0.0 67 135
+ 3.85 0 2 tcp 1040 ------- 1 0.0 2.0 68 136
- 3.85 0 2 tcp 1040 ------- 1 0.0 2.0 68 136
r 3.87832 0 2 tcp 1040 ------- 1 0.0 2.0 68 136
+ 3.87832 2 0 ack 40 ------- 1 2.0 0.0 68 137
- 3.87832 2 0 ack 40 ------- 1 2.0 0.0 68 137
r 3.89864 2 0 ack 40 ------- 1 2.0 0.0 68 137
+ 3.9 0 2 tcp 1040 ------- 1 0.0 2.0 69 138
- 3.9 0 2 tcp 1040 ------- 1 0.0 2.0 69 138
r 3.92832 0 2 tcp 1040 ------- 1 0.0 2.0 69 138
+ 3.92832 2 0 ack 40 ------- 1 2.0 0.0 69 139
- 3.92832 2 0 ack 40 ------- 1 2.0 0.0 69 139
r 3.94864 2 0 ack 40 ------- 1 2.0 0.0 69 139
+ 3.95 0 2 tcp 1040 ------- 1 0.0 2.0 70 140
- 3.95 0 2 tcp 1040 ------- 1 0.0 2.0 70 140
r 3.97832 0 2 tcp 1040 ------- 1 0.0 2.0 70 140
+ 3.97832 2 0 ack 40 ------- 1 2.0 0.0 70 141
- 3.97832 2 0 ack 40 ------- 1 2.0 0.0 70 141
r 3.99864 2 0 ack 40 ------- 1 2.0 0.0 70 141
+ 4 0 2 tcp 1040 ------- 1 0.0 2.0 71 142
- 4 0 2 tcp 1040 ------- 1 0.0 2.0 71 142
r 4.02832 0 2 tcp 1040 ------- 1 0.0 2.0 71 142
+ 4.02832 2 0 ack 40 ------- 1 2.0 0.0 71 143
- 4.02832 2 0 ack 40 ------- 1 2.0 0.0 71 143
r 4.04864 2 0 ack 40 ------- 1 2.0 0.0 71 143
+ 4.05 0 2 tcp 1040 ------- 1 0.0 2.0 72 144
- 4.05 0 2 tcp 1040 ------- 1 0.0 2.0 72 144
r 4.07832 0 2 tcp 1040 ------- 1 0.0 2.0 72 144
+ 4.07832 2 0 ack 40 ------- 1 2.0 0.0 72 145
- 4.07832 2 0 ack 40 ------- 1 2.0 0.0 72 145
r 4.09864 2 0 ack 40 ------- 1 2.0 0.0 72 145
+ 4.1 0 2 tcp 1040 ------- 1 0.0 2.0 73 146
- 4.1 0 2 tcp 1040 ------- 1 0.0 2.0 73 146
r 4.12832 0 2 tcp 1040 ------- 1 0.0 2.0 73 146
+ 4.12832 2 0 ack 40 ------- 1 2.0 0.0 73 147
- 4.12832 2 0 ack 40 ------- 1 2.0 0.0 73 147
r 4.14864 2 0 ack 40 ------- 1 2.0 0.0 73 147
+ 4.15 0 2 tcp 1040 ------- 1 0.0 2.0 74 148
- 4.15 0 2 tcp 1040 ------- 1 0.0 2.0 74 148
r 4.17832 0 2 tcp 1040 ------- 1 0.0 2.0 74 148
+ 4.17832 2 0 ack 40 ------- 1 2.0 0.0 74 149
- 4.17832 2 0 ack 40 ------- 1 2.0 0.0 74 149
r 4.19864 2 0 ack 40 ------- 1 2.0 0.0 74 149
+ 4.2 0 2 tcp 1040 ------- 1 0.0 2.0 75 150
- 4.2 0 2 tcp 1040 ------- 1 0.0 2.0 75 150
r 4.22832 0 2 tcp 1040 ------- 1 0.0 2.0 75 150
+ 4.22832 2 0 ack 40 ------- 1 2.0 0.0 75 151
- 4.22832 2 0 ack 40 ------- 1 2.0 0.0 75 151
r 4.24864 2 0 ack 40 ------- 1 2.0 0.0 75 151
+ 4.25 0 2 tcp 1040 ------- 1 0.0 2.0 76 152
- 4.25 0 2 tcp 1040 ------- 1 0.0 2.0 76 152
r 4.27832 0 2 tcp 1040 ------- 1 0.0 2.0 76 152
+ 4.27832 2 0 ack 40 ------- 1 2.0 0.0 76 153
- 4.27832 2 0 ack 40 ------- 1 2.0 0.0 76 153
r 4.29864 2 0 ack 40 ------- 1 2.0 0.0 76 153
+ 4.3 0 2 tcp 1040 ------- 1 0.0 2.0 77 154
- 4.3 0 2 tcp 1040 ------- 1 0.0 2.0 77 154
r 4.32832 0 2 tcp 1040 ------- 1 0.0 2.0 77 154
+ 4.32832 2 0 ack 40 ------- 1 2.0 0.0 77 155
- 4.32832 2 0 ack 40 ------- 1 2.0 0.0 77 155
r 4.34864 2 0 ack 40 ------- 1 2.0 0.0 77 155
+ 4.35 0 2 tcp 1040 ------- 1 0.0 2.0 78 156
- 4.35 0 2 tcp 1040 ------- 1 0.0 2.0 78 156
r 4.37832 0 2 tcp 1040 ------- 1 0.0 2.0 78 156
+ 4.37832 2 0 ack 40 ------- 1 2.0 0.0 78 157
- 4.37832 2 0 ack 40 ------- 1 2.0 0.0 78 157
r 4.39864 2 0 ack 40 ------- 1 2.0 0.0 78 157
+ 4.4 0 2 tcp 1040 ------- 1 0.0 2.0 79 158
- 4.4 0 2 tcp 1040 ------- 1 0.0 2.0 79 158
r 4.42832 0 2 tcp 1040 ------- 1 0.0 2.0 79 158
+ 4.42832 2 0 ack 40 ------- 1 2.0 0.0 79 159
- 4.42832 2 0 ack 40 ------- 1 2.0 0.0 79 159
r 4.44864 2 0 ack 40 ------- 1 2.0 0.0 79 159
+ 4.45 0 2 tcp 1040 ------- 1 0.0 2.0 80 160
- 4.45 0 2 tcp 1040 ------- 1 0.0 2.0 80 160
r 4.47832 0 2 tcp 1040 ------- 1 0.0 2.0 80 160
+ 4.47832 2 0 ack 40 ------- 1 2.0 0.0 80 161
- 4.47832 2 0 ack 40 ------- 1 2.0 0.0 80 161
r 4.49864 2 0 ack 40 ------- 1 2.0 0.0 80 161
+ 4.5 0 2 tcp 1040 ------- 1 0.0 2.0 81 162
- 4.5 0 2 tcp 1040 ------- 1 0.0 2.0 81 162
r 4.52832 0 2 tcp 1040 ------- 1 0.0 2.0 81 162
+ 4.52832 2 0 ack 40 ------- 1 2.0 0.0 81 163
- 4.52832 2 0 ack 40 ------- 1 2.0 0.0 81 163
r 4.54864 2 0 ack 40 ------- 1 2.0 0.0 81 163
+ 4.55 0 2 tcp 1040 ------- 1 0.0 2.0 82 164
- 4.55 0 2 tcp 1040 ------- 1 0.0 2.0 82 164
r 4.57832 0 2 tcp 1040 ------- 1 0.0 2.0 82 164
+ 4.57832 2 0 ack 40 ------- 1 2.0 0.0 82 165
- 4.57832 2 0 ack 40 ------- 1 2.0 0.0 82 165
r 4.59864 2 0 ack 40 ------- 1 2.0 0.0 82 165
+ 4.6 0 2 tcp 1040 ------- 1 0.0 2.0 83 166
- 4.6 0 2 tcp 1040 ------- 1 0.0 2.0 83 166
r 4.62832 0 2 tcp 1040 ------- 1 0.0 2.0 83 166
+ 4.62832 2 0 ack 40 ------- 1 2.0 0.0 83 167
- 4.62832 2 0 ack 40 ------- 1 2.0 0.0 83 167
r 4.64864 2 0 ack 40 ------- 1 2.0 0.0 83 167
+ 4.65 0 2 tcp 1040 ------- 1 0.0 2.0 84 168
- 4.65 0 2 tcp 1040 ------- 1 0.0 2.0 84 168
r 4.67832 0 2 tcp 1040 ------- 1 0.0 2.0 84 168
+ 4.67832 2 0 ack 40 ------- 1 2.0 0.0 84 169
- 4.67832 2 0 ack 40 ------- 1 2.0 0.0 84 169
r 4.69864 2 0 ack 40 ------- 1 2.0 0.0 84 169
+ 4.7 0 2 tcp 1040 ------- 1 0.0 2.0 85 170
- 4.7 0 2 tcp 1040 ------- 1 0.0 2.0 85 170
r 4.72832 0 2 tcp 1040 ------- 1 0.0 2.0 85 170
+ 4.72832 2 0 ack 40 ------- 1 2.0 0.0 85 171
- 4.72832 2 0 ack 40 ------- 1 2.0 0.0 85 171
r 4.74864 2 0 ack 40 ------- 1 2.0 0.0 85 171
+ 4.75 0 2 tcp 1040 ------- 1 0.0 2.0 86 172
- 4.75 0 2 tcp 1040 ------- 1 0.0 2.0 86 172
r 4.77832 0 2 tcp 1040 ------- 1 0.0 2.0 86 172
+ 4.77832 2 0 ack 40 ------- 1 2.0 0.0 86 173
- 4.77832 2 0 ack 40 ------- 1 2.0 0.0 86 173
r 4.79864 2 0 ack 40 ------- 1 2.0 0.0 86 173
+ 4.8 0 2 tcp 1040 ------- 1 0.0 2.0 87 174
- 4.8 0 2 tcp 1040 ------- 1 0.0 2.0 87 174
r 4.82832 0 2 tcp 1040 ------- 1 0.0 2.0 87 174
+ 4.82832 2 0 ack 40 ------- 1 2.0 0.0 87 175
- 4.82832 2 0 ack 40 ------- 1 2.0 0.0 87 175
r 4.84864 2 0 ack 40 ------- 1 2.0 0.0 87 175
+ 4.85 0 2 tcp 1040 ------- 1 0.0 2.0 88 176
- 4.85 0 2 tcp 1040 ------- 1 0.0 2.0 88 176
r 4.87832 0 2 tcp 1040 ------- 1 0.0 2.0 88 176
+ 4.87832 2 0 ack 40 ------- 1 2.0 0.0 88 177
- 4.87832 2 0 ack 40 ------- 1 2.0 0.0 88 177
r 4.89864 2 0 ack 40 ------- 1 2.0 0.0 88 177
+ 4.9 0 2 tcp 1040 ------- 1 0.0 2.0 89 178
- 4.9 0 2 tcp 1040 ------- 1 0.0 2.0 89 178
r 4.92832 0 2 tcp 1040 ------- 1 0.0 2.0 89 178
+ 4.92832 2 0 ack 40 ------- 1 2.0 0.0 89 179
- 4.92832 2 0 ack 40 ------- 1 2.0 0.0 89 179
r 4.94864 2 0 ack 40 ------- 1 2.0 0.0 89 179
+ 4.95 0 2 tcp 1040 ------- 1 0.0 2.0 90 180
- 4.95 0 2 tcp 1040 ------- 1 0.0 2.0 90 180
r 4.97832 0 2 tcp 1040 ------- 1 0.0 2.0 90 180
+ 4.97832 2 0 ack 40 ------- 1 2.0 0.0 90 181
- 4.97832 2 0 ack 40 ------- 1 2.0 0.0 90 181
r 4.99864 2 0 ack 40 ------- 1 2.0 0.0 90 181
+ 5 0 2 tcp 1040 ------- 1 0.0 2.0 91 182
- 5 0 2 tcp 1040 ------- 1 0.0 2.0 91 182
r 5.02832 0 2 tcp 1040 ------- 1 0.0 2.0 91 182
+ 5.02832 2 0 ack 40 ------- 1 2.0 0.0 91 183
- 5.02832 2 0 ack 40 ------- 1 2.0 0.0 91 183
r 5.04864 2 0 ack 40 ------- 1 2.0 0.0 91 183
+ 5.05 0 2 tcp 1040 ------- 1 0.0 2.0 92 184
- 5.05 0 2 tcp 1040 ------- 1 0.0 2.0 92 184
r 5.07832 0 2 tcp 1040 ------- 1 0.0 2.0 92 184
+ 5.07832 2 0 ack 40 ------- 1 2.0 0.0 92 185
- 5.07832 2 0 ack 40 ------- 1 2.0 0.0 92 185
r 5.09864 2 0 ack 40 ------- 1 2.0 0.0 92 185
+ 5.1 0 2 tcp 1040 ------- 1 0.0 2.0 93 186
- 5.1 0 2 tcp 1040 ------- 1 0.0 2.0 93 186
r 5.12832 0 2 tcp 1040 ------- 1 0.0 2.0 93 186
+ 5.12832 2 0 ack 40 ------- 1 2.0 0.0 93 187
- 5.12832 2 0 ack 40 ------- 1 2.0 0.0 93 187
r 5.14864 2 0 ack 40 ------- 1 2.0 0.0 93 187
+ 5.15 0 2 tcp 1040 ------- 1 0.0 2.0 94 188
- 5.15 0 2 tcp 1040 ------- 1 0.0 2.0 94 188
r 5.17832 0 2 tcp 1040 ------- 1 0.0 2.0 94 188
+ 5.17832 2 0 ack 40 ------- 1 2.0 0.0 94 189
- 5.17832 2 0 ack 40 ------- 1 2.0 0.0 94 189
r 5.19864 2 0 ack 40 ------- 1 2.0 0.0 94 189
+ 5.2 0 2 tcp 1040 ------- 1 0.0 2.0 95 190
- 5.2 0 2 tcp 1040 ------- 1 0.0 2.0 95 190
r 5.22832 0 2 tcp 1040 ------- 1 0.0 2.0 95 190
+ 5.22832 2 0 ack 40 ------- 1 2.0 0.0 95 191
- 5.22832 2 0 ack 40 ------- 1 2.0 0.0 95 191
r 5.24864 2 0 ack 40 ------- 1 2.0 0.0 95 191
+ 5.25 0 2 tcp 1040 ------- 1 0.0 2.0 96 192
- 5.25 0 2 tcp 1040 ------- 1 0.0 2.0 96 192
r 5.27832 0 2 tcp 1040 ------- 1 0.0 2.0 96 192
+ 5.27832 2 0 ack 40 ------- 1 2.0 0.0 96 193
- 5.27832 2 0 ack 40 ------- 1 2.0 0.0 96 193
r 5.29864 2 0 ack 40 ------- 1 2.0 0.0 96 193
+ 5.3 0 2 tcp 1040 ------- 1 0.0 2.0 97 194
- 5.3 0 2 tcp 1040 ------- 1 0.0 2.0 97 194
r 5.32832 0 2 tcp 1040 ------- 1 0.0 2.0 97 194
+ 5.32832 2 0 ack 40 ------- 1 2.0 0.0 97 195
- 5.32832 2 0 ack 40 ------- 1 2.0 0.0 97 195
r 5.34864 2 0 ack 40 ------- 1 2.0 0.0 97 195
+ 5.35 0 2 tcp 1040 ------- 1 0.0 2.0 98 196
- 5.35 0 2 tcp 1040 ------- 1 0.0 2.0 98 196
r 5.37832 0 2 tcp 1040 ------- 1 0.0 2.0 98 196
+ 5.37832 2 0 ack 40 ------- 1 2.0 0.0 98 197
- 5.37832 2 0 ack 40 ------- 1 2.0 0.0 98 197
r 5.39864 2 0 ack 40 ------- 1 2.0 0.0 98 197
+ 5.4 0 2 tcp 1040 ------- 1 0.0 2.0 99 198
- 5.4 0 2 tcp 1040 ------- 1 0.0 2.0 99 198
r 5.42832 0 2 tcp 1040 ------- 1 0.0 2.0 99 198
+ 5.42832 2 0 ack 40 ------- 1 2.0 0.0 99 199
- 5.42832 2 0 ack 40 ------- 1 2.0 0.0 99 199
r 5.44864 2 0 ack 40 ------- 1 2.0 0.0 99 199
+ 5.45 0 2 tcp 1040 ------- 1 0.0 2.0 100 200
- 5.45 0 2 tcp 1040 ------- 1 0.0 2.0 100 200
r 5.47832 0 2 tcp 1040 ------- 1 0.0 2.0 100 200
+ 5.47832 2 0 ack 40 ------- 1 2.0 0.0 100 201
- 5.47832 2 0 ack 40 ------- 1 2.0 0.0 100 201
r 5.49864 2 0 ack 40 ------- 1 2.0 0.0 100 201
+ 5.5 0 2 tcp 1040 ------- 1 0.0 2.0 101 202
- 5.5 0 2 tcp 1040 ------- 1 0.0 2.0 101 202
r 5.52832 0 2 tcp 1040 ------- 1 0.0 2.0 101 202
+ 5.52832 2 0 ack 40 ------- 1 2.0 0.0 101 203
- 5.52832 2 0 ack 40 ------- 1 2.0 0.0 101 203
r 5.54864 2 0 ack 40 ------- 1 2.0 0.0 101 203
