V -t * -v 1.0a5 -a 0
A -t * -n 1 -p 0 -o 0x7fffffff -c 30 -a 1
A -t * -h 1 -m 1073741823 -s 0
n -t * -a 0 -s 0 -S UP -v circle -c black -i black
n -t * -a 1 -s 1 -S UP -v circle -c black -i black
n -t * -a 2 -s 2 -S UP -v circle -c black -i black
n -t * -a 3 -s 3 -S UP -v circle -c black -i black
l -t * -s 0 -d 1 -S UP -r 1000000 -D 0.02 -c black
l -t * -s 0 -d 2 -S UP -r 1000000 -D 0.02 -c black
l -t * -s 0 -d 3 -S UP -r 1000000 -D 0.02 -c black
l -t * -s 1 -d 2 -S UP -r 1000000 -D 0.02 -c black
l -t * -s 1 -d 3 -S UP -r 1000000 -D 0.02 -c black
l -t * -s 2 -d 3 -S UP -r 1000000 -D 0.02 -c black
+ -t 0.5 -s 0 -d 2 -p tcp -e 40 -c 1 -i 0 -a 1 -x {0.0 2.0 0 ------- null}
- -t 0.5 -s 0 -d 2 -p tcp -e 40 -c 1 -i 0 -a 1 -x {0.0 2.0 0 ------- null}
h -t 0.5 -s 0 -d 2 -p tcp -e 40 -c 1 -i 0 -a 1 -x {0.0 2.0 -1 ------- null}
r -t 0.52032 -s 0 -d 2 -p tcp -e 40 -c 1 -i 0 -a 1 -x {0.0 2.0 0 ------- null}
+ -t 0.52032 -s 2 -d 0 -p ack -e 40 -c 1 -i 1 -a 1 -x {2.0 0.0 0 ------- null}
- -t 0.52032 -s 2 -d 0 -p ack -e 40 -c 1 -i 1 -a 1 -x {2.0 0.0 0 ------- null}
h -t 0.52032 -s 2 -d 0 -p ack -e 40 -c 1 -i 1 -a 1 -x {2.0 0.0 -1 ------- null}
r -t 0.54064 -s 2 -d 0 -p ack -e 40 -c 1 -i 1 -a 1 -x {2.0 0.0 0 ------- null}
+ -t 0.54064 -s 0 -d 2 -p tcp -e 1040 -c 1 -i 2 -a 1 -x {0.0 2.0 1 ------- null}
- -t 0.54064 -s 0 -d 2 -p tcp -e 1040 -c 1 -i 2 -a 1 -x {0.0 2.0 1 ------- null}
h -t 0.54064 -s 0 -d 2 -p tcp -e 1040 -c 1 -i 2 -a 1 -x {0.0 2.0 -1 ------- null}
+ -t 0.55 -s 0 -d 2 -p tcp -e 1040 -c 1 -i 3 -a 1 -x {0.0 2.0 2 ------- null}
- -t 0.55 -s 0 -d 2 -p tcp -e 1040 -c 1 -i 3 -a 1 -x {0.0 2.0 2 ------- null}
h -t 0.55 -s 0 -d 2 -p tcp -e 1040 -c 1 -i 3 -a 1 -x {0.0 2.0 -1 ------- null}
r -t 0.56896 -s 0 -d 2 -p tcp -e 1040 -c 1 -i 2 -a 1 -x {0.0 2.0 1 ------- null}
+ -t 0.56896 -s 2 -d 0 -p ack -e 40 -c 1 -i 4 -a 1 -x {2.0 0.0 1 ------- null}
- -t 0.56896 -s 2 -d 0 -p ack -e 40 -c 1 -i 4 -a 1 -x {2.0 0.0 1 ------- null}
h -t 0.56896 -s 2 -d 0 -p ack -e 40 -c 1 -i 4 -a 1 -x {2.0 0.0 -1 ------- null}
r -t 0.57832 -s 0 -d 2 -p tcp -e 1040 -c 1 -i 3 -a 1 -x {0.0 2.0 2 ------- null}
+ -t 0.57832 -s 2 -d 0 -p ack -e 40 -c 1 -i 5 -a 1 -x {2.0 0.0 2 ------- null}
- -t 0.57832 -s 2 -d 0 -p ack -e 40 -c 1 -i 5 -a 1 -x {2.0 0.0 2 ------- null}
h -t 0.57832 -s 2 -d 0 -p ack -e 40 -c 1 -i 5 -a 1 -x {2.0 0.0 -1 ------- null}
r -t 0.58928 -s 2 -d 0 -p ack -e 40 -c 1 -i 4 -a 1 -x {2.0 0.0 1 ------- null}
r -t 0.59864 -s 2 -d 0 -p ack -e 40 -c 1 -i 5 -a 1 -x {2.0 0.0 2 ------- null}
+ -t 0.6 -s 0 -d 2 -p tcp -e 1040 -c 1 -i 6 -a 1 -x {0.0 2.0 3 ------- null}
- -t 0.6 -s 0 -d 2 -p tcp -e 1040 -c 1 -i 6 -a 1 -x {0.0 2.0 3 ------- null}
h -t 0.6 -s 0 -d 2 -p tcp -e 1040 -c 1 -i 6 -a 1 -x {0.0 2.0 -1 ------- null}
r -t 0.62832 -s 0 -d 2 -p tcp -e 1040 -c 1 -i 6 -a 1 -x {0.0 2.0 3 ------- null}
+ -t 0.62832 -s 2 -d 0 -p ack -e 40 -c 1 -i 7 -a 1 -x {2.0 0.0 3 ------- null}
- -t 0.62832 -s 2 -d 0 -p ack -e 40 -c 1 -i 7 -a 1 -x {2.0 0.0 3 ------- null}
h -t 0.62832 -s 2 -d 0 -p ack -e 40 -c 1 -i 7 -a 1 -x {2.0 0.0 -1 ------- null}
r -t 0.64864 -s 2 -d 0 -p ack -e 40 -c 1 -i 7 -a 1 -x {2.0 0.0 3 ------- null}
+ -t 0.65 -s 0 -d 2 -p tcp -e 1040 -c 1 -i 8 -a 1 -x {0.0 2.0 4 ------- null}
- -t 0.65 -s 0 -d 2 -p tcp -e 1040 -c 1 -i 8 -a 1 -x {0.0 2.0 4 ------- null}
h -t 0.65 -s 0 -d 2 -p tcp -e 1040 -c 1 -i 8 -a 1 -x {0.0 2.0 -1 ------- null}
r -t 0.67832 -s 0 -d 2 -p tcp -e 1040 -c 1 -i 8 -a 1 -x {0.0 2.0 4 ------- null}
+ -t 0.67832 -s 2 -d 0 -p ack -e 40 -c 1 -i 9 -a 1 -x {2.0 0.0 4 ------- null}
- -t 0.67832 -s 2 -d 0 -p ack -e 40 -c 1 -i 9 -a 1 -x {2.0 0.0 4 ------- null}
h -t 0.67832 -s 2 -d 0 -p ack -e 40 -c 1 -i 9 -a 1 -x {2.0 0.0 -1 ------- null}
r -t 0.69864 -s 2 -d 0 -p ack -e 40 -c 1 -i 9 -a 1 -x {2.0 0.0 4 ------- null}
+ -t 0.7 -s 0 -d 2 -p tcp -e 1040 -c 1 -i 10 -a 1 -x {0.0 2.0 5 ------- null}
- -t 0.7 -s 0 -d 2 -p tcp -e 1040 -c 1 -i 10 -a 1 -x {0.0 2.0 5 ------- null}
h -t 0.7 -s 0 -d 2 -p tcp -e 1040 -c 1 -i 10 -a 1 -x {0.0 2.0 -1 ------- null}
r -t 0.72832 -s 0 -d 2 -p tcp -e 1040 -c 1 -i 10 -a 1 -x {0.0 2.0 5 ------- null}
+ -t 0.72832 -s 2 -d 0 -p ack -e 40 -c 1 -i 11 -a 1 -x {2.0 0.0 5 ------- null}
- -t 0.72832 -s 2 -d 0 -p ack -e 40 -c 1 -i 11 -a 1 -x {2.0 0.0 5 ------- null}
h -t 0.72832 -s 2 -d 0 -p ack -e 40 -c 1 -i 11 -a 1 -x {2.0 0.0 -1 ------- null}
r -t 0.74864 -s 2 -d 0 -p ack -e 40 -c 1 -i 11 -a 1 -x {2.0 0.0 5 ------- null}
+ -t 0.75 -s 0 -d 2 -p tcp -e 1040 -c 1 -i 12 -a 1 -x {0.0 2.0 6 ------- null}
- -t 0.75 -s 0 -d 2 -p tcp -e 1040 -c 1 -i 12 -a 1 -x {0.0 2.0 6 ------- null}
h -t 0.75 -s 0 -d 2 -p tcp -e 1040 -c 1 -i 12 -a 1 -x {0.0 2.0 -1 ------- null}
r -t 0.77832 -s 0 -d 2 -p tcp -e 1040 -c 1 -i 12 -a 1 -x {0.0 2.0 6 ------- null}
+ -t 0.77832 -s 2 -d 0 -p ack -e 40 -c 1 -i 13 -a 1 -x {2.0 0.0 6 ------- null}
- -t 0.77832 -s 2 -d 0 -p ack -e 40 -c 1 -i 13 -a 1 -x {2.0 0.0 6 ------- null}
h -t 0.77832 -s 2 -d 0 -p ack -e 40 -c 1 -i 13 -a 1 -x {2.0 0.0 -1 ------- null}
r -t 0.79864 -s 2 -d 0 -p ack -e 40 -c 1 -i 13 -a 1 -x {2.0 0.0 6 ------- null}
+ -t 0.8 -s 0 -d 2 -p tcp -e 1040 -c 1 -i 14 -a 1 -x {0.0 2.0 7 ------- null}
- -t 0.8 -s 0 -d 2 -p tcp -e 1040 -c 1 -i 14 -a 1 -x {0.0 2.0 7 ------- null}
h -t 0.8 -s 0 -d 2 -p tcp -e 1040 -c 1 -i 14 -a 1 -x {0.0 2.0 -1 ------- null}
r -t 0.82832 -s 0 -d 2 -p tcp -e 1040 -c 1 -i 14 -a 1 -x {0.0 2.0 7 ------- null}
+ -t 0.82832 -s 2 -d 0 -p ack -e 40 -c 1 -i 15 -a 1 -x {2.0 0.0 7 ------- null}
- -t 0.82832 -s 2 -d 0 -p ack -e 40 -c 1 -i 15 -a 1 -x {2.0 0.0 7 ------- null}
h -t 0.82832 -s 2 -d 0 -p ack -e 40 -c 1 -i 15 -a 1 -x {2.0 0.0 -1 ------- null}
r -t 0.84864 -s 2 -d 0 -p ack -e 40 -c 1 -i 15 -a 1 -x {2.0 0.0 7 ------- null}
+ -t 0.85 -s 0 -d 2 -p tcp -e 1040 -c 1 -i 16 -a 1 -x {0.0 2.0 8 ------- null}
- -t 0.85 -s 0 -d 2 -p tcp -e 1040 -c 1 -i 16 -a 1 -x {0.0 2.0 8 ------- null}
h -t 0.85 -s 0 -d 2 -p tcp -e 1040 -c 1 -i 16 -a 1 -x {0.0 2.0 -1 ------- null}
r -t 0.87832 -s 0 -d 2 -p tcp -e 1040 -c 1 -i 16 -a 1 -x {0.0 2.0 8 ------- null}
+ -t 0.87832 -s 2 -d 0 -p ack -e 40 -c 1 -i 17 -a 1 -x {2.0 0.0 8 ------- null}
- -t 0.87832 -s 2 -d 0 -p ack -e 40 -c 1 -i 17 -a 1 -x {2.0 0.0 8 ------- null}
h -t 0.87832 -s 2 -d 0 -p ack -e 40 -c 1 -i 17 -a 1 -x {2.0 0.0 -1 ------- null}
r -t 0.89864 -s 2 -d 0 -p ack -e 40 -c 1 -i 17 -a 1 -x {2.0 0.0 8 ------- null}
+ -t 0.9 -s 0 -d 2 -p tcp -e 1040 -c 1 -i 18 -a 1 -x {0.0 2.0 9 ------- null}
- -t 0.9 -s 0 -d 2 -p tcp -e 1040 -c 1 -i 18 -a 1 -x {0.0 2.0 9 ------- null}
h -t 0.9 -s 0 -d 2 -p tcp -e 1040 -c 1 -i 18 -a 1 -x {0.0 2.0 -1 ------- null}
r -t 0.92832 -s 0 -d 2 -p tcp -e 1040 -c 1 -i 18 -a 1 -x {0.0 2.0 9 ------- null}
+ -t 0.92832 -s 2 -d 0 -p ack -e 40 -c 1 -i 19 -a 1 -x {2.0 0.0 9 ------- null}
- -t 0.92832 -s 2 -d 0 -p ack -e 40 -c 1 -i 19 -a 1 -x {2.0 0.0 9 ------- null}
h -t 0.92832 -s 2 -d 0 -p ack -e 40 -c 1 -i 19 -a 1 -x {2.0 0.0 -1 ------- null}
r -t 0.94864 -s 2 -d 0 -p ack -e 40 -c 1 -i 19 -a 1 -x {2.0 0.0 9 ------- null}
+ -t 0.95 -s 0 -d 2 -p tcp -e 1040 -c 1 -i 20 -a 1 -x {0.0 2.0 10 ------- null}
- -t 0.95 -s 0 -d 2 -p tcp -e 1040 -c 1 -i 20 -a 1 -x {0.0 2.0 10 ------- null}
h -t 0.95 -s 0 -d 2 -p tcp -e 1040 -c 1 -i 20 -a 1 -x {0.0 2.0 -1 ------- null}
r -t 0.97832 -s 0 -d 2 -p tcp -e 1040 -c 1 -i 20 -a 1 -x {0.0 2.0 10 ------- null}
+ -t 0.97832 -s 2 -d 0 -p ack -e 40 -c 1 -i 21 -a 1 -x {2.0 0.0 10 ------- null}
- -t 0.97832 -s 2 -d 0 -p ack -e 40 -c 1 -i 21 -a 1 -x {2.0 0.0 10 ------- null}
h -t 0.97832 -s 2 -d 0 -p ack -e 40 -c 1 -i 21 -a 1 -x {2.0 0.0 -1 ------- null}
r -t 0.99864 -s 2 -d 0 -p ack -e 40 -c 1 -i 21 -a 1 -x {2.0 0.0 10 ------- null}
+ -t 1 -s 0 -d 2 -p tcp -e 1040 -c 1 -i 22 -a 1 -x {0.0 2.0 11 ------- null}
- -t 1 -s 0 -d 2 -p tcp -e 1040 -c 1 -i 22 -a 1 -x {0.0 2.0 11 ------- null}
h -t 1 -s 0 -d 2 -p tcp -e 1040 -c 1 -i 22 -a 1 -x {0.0 2.0 -1 ------- null}
r -t 1.02832 -s 0 -d 2 -p tcp -e 1040 -c 1 -i 22 -a 1 -x {0.0 2.0 11 ------- null}
+ -t 1.02832 -s 2 -d 0 -p ack -e 40 -c 1 -i 23 -a 1 -x {2.0 0.0 11 ------- null}
- -t 1.02832 -s 2 -d 0 -p ack -e 40 -c 1 -i 23 -a 1 -x {2.0 0.0 11 ------- null}
h -t 1.02832 -s 2 -d 0 -p ack -e 40 -c 1 -i 23 -a 1 -x {2.0 0.0 -1 ------- null}
r -t 1.04864 -s 2 -d 0 -p ack -e 40 -c 1 -i 23 -a 1 -x {2.0 0.0 11 ------- null}
+ -t 1.05 -s 0 -d 2 -p tcp -e 1040 -c 1 -i 24 -a 1 -x {0.0 2.0 12 ------- null}
- -t 1.05 -s 0 -d 2 -p tcp -e 1040 -c 1 -i 24 -a 1 -x {0.0 2.0 12 ------- null}
h -t 1.05 -s 0 -d 2 -p tcp -e 1040 -c 1 -i 24 -a 1 -x {0.0 2.0 -1 ------- null}
r -t 1.07832 -s 0 -d 2 -p tcp -e 1040 -c 1 -i 24 -a 1 -x {0.0 2.0 12 ------- null}
+ -t 1.07832 -s 2 -d 0 -p ack -e 40 -c 1 -i 25 -a 1 -x {2.0 0.0 12 ------- null}
- -t 1.07832 -s 2 -d 0 -p ack -e 40 -c 1 -i 25 -a 1 -x {2.0 0.0 12 ------- null}
h -t 1.07832 -s 2 -d 0 -p ack -e 40 -c 1 -i 25 -a 1 -x {2.0 0.0 -1 ------- null}
r -t 1.09864 -s 2 -d 0 -p ack -e 40 -c 1 -i 25 -a 1 -x {2.0 0.0 12 ------- null}
+ -t 1.1 -s 0 -d 2 -p tcp -e 1040 -c 1 -i 26 -a 1 -x {0.0 2.0 13 ------- null}
- -t 1.1 -s 0 -d 2 -p tcp -e 1040 -c 1 -i 26 -a 1 -x {0.0 2.0 13 ------- null}
h -t 1.1 -s 0 -d 2 -p tcp -e 1040 -c 1 -i 26 -a 1 -x {0.0 2.0 -1 ------- null}
r -t 1.12832 -s 0 -d 2 -p tcp -e 1040 -c 1 -i 26 -a 1 -x {0.0 2.0 13 ------- null}
+ -t 1.12832 -s 2 -d 0 -p ack -e 40 -c 1 -i 27 -a 1 -x {2.0 0.0 13 ------- null}
- -t 1.12832 -s 2 -d 0 -p ack -e 40 -c 1 -i 27 -a 1 -x {2.0 0.0 13 ------- null}
h -t 1.12832 -s 2 -d 0 -p ack -e 40 -c 1 -i 27 -a 1 -x {2.0 0.0 -1 ------- null}
r -t 1.14864 -s 2 -d 0 -p ack -e 40 -c 1 -i 27 -a 1 -x {2.0 0.0 13 ------- null}
+ -t 1.15 -s 0 -d 2 -p tcp -e 1040 -c 1 -i 28 -a 1 -x {0.0 2.0 14 ------- null}
- -t 1.15 -s 0 -d 2 -p tcp -e 1040 -c 1 -i 28 -a 1 -x {0.0 2.0 14 ------- null}
h -t 1.15 -s 0 -d 2 -p tcp -e 1040 -c 1 -i 28 -a 1 -x {0.0 2.0 -1 ------- null}
r -t 1.17832 -s 0 -d 2 -p tcp -e 1040 -c 1 -i 28 -a 1 -x {0.0 2.0 14 ------- null}
+ -t 1.17832 -s 2 -d 0 -p ack -e 40 -c 1 -i 29 -a 1 -x {2.0 0.0 14 ------- null}
- -t 1.17832 -s 2 -d 0 -p ack -e 40 -c 1 -i 29 -a 1 -x {2.0 0.0 14 ------- null}
h -t 1.17832 -s 2 -d 0 -p ack -e 40 -c 1 -i 29 -a 1 -x {2.0 0.0 -1 ------- null}
r -t 1.19864 -s 2 -d 0 -p ack -e 40 -c 1 -i 29 -a 1 -x {2.0 0.0 14 ------- null}
+ -t 1.2 -s 0 -d 2 -p tcp -e 1040 -c 1 -i 30 -a 1 -x {0.0 2.0 15 ------- null}
- -t 1.2 -s 0 -d 2 -p tcp -e 1040 -c 1 -i 30 -a 1 -x {0.0 2.0 15 ------- null}
h -t 1.2 -s 0 -d 2 -p tcp -e 1040 -c 1 -i 30 -a 1 -x {0.0 2.0 -1 ------- null}
r -t 1.22832 -s 0 -d 2 -p tcp -e 1040 -c 1 -i 30 -a 1 -x {0.0 2.0 15 ------- null}
+ -t 1.22832 -s 2 -d 0 -p ack -e 40 -c 1 -i 31 -a 1 -x {2.0 0.0 15 ------- null}
- -t 1.22832 -s 2 -d 0 -p ack -e 40 -c 1 -i 31 -a 1 -x {2.0 0.0 15 ------- null}
h -t 1.22832 -s 2 -d 0 -p ack -e 40 -c 1 -i 31 -a 1 -x {2.0 0.0 -1 ------- null}
r -t 1.24864 -s 2 -d 0 -p ack -e 40 -c 1 -i 31 -a 1 -x {2.0 0.0 15 ------- null}
+ -t 1.25 -s 0 -d 2 -p tcp -e 1040 -c 1 -i 32 -a 1 -x {0.0 2.0 16 ------- null}
- -t 1.25 -s 0 -d 2 -p tcp -e 1040 -c 1 -i 32 -a 1 -x {0.0 2.0 16 ------- null}
h -t 1.25 -s 0 -d 2 -p tcp -e 1040 -c 1 -i 32 -a 1 -x {0.0 2.0 -1 ------- null}
r -t 1.27832 -s 0 -d 2 -p tcp -e 1040 -c 1 -i 32 -a 1 -x {0.0 2.0 16 ------- null}
+ -t 1.27832 -s 2 -d 0 -p ack -e 40 -c 1 -i 33 -a 1 -x {2.0 0.0 16 ------- null}
- -t 1.27832 -s 2 -d 0 -p ack -e 40 -c 1 -i 33 -a 1 -x {2.0 0.0 16 ------- null}
h -t 1.27832 -s 2 -d 0 -p ack -e 40 -c 1 -i 33 -a 1 -x {2.0 0.0 -1 ------- null}
r -t 1.29864 -s 2 -d 0 -p ack -e 40 -c 1 -i 33 -a 1 -x {2.0 0.0 16 ------- null}
+ -t 1.3 -s 0 -d 2 -p tcp -e 1040 -c 1 -i 34 -a 1 -x {0.0 2.0 17 ------- null}
- -t 1.3 -s 0 -d 2 -p tcp -e 1040 -c 1 -i 34 -a 1 -x {0.0 2.0 17 ------- null}
h -t 1.3 -s 0 -d 2 -p tcp -e 1040 -c 1 -i 34 -a 1 -x {0.0 2.0 -1 ------- null}
r -t 1.32832 -s 0 -d 2 -p tcp -e 1040 -c 1 -i 34 -a 1 -x {0.0 2.0 17 ------- null}
+ -t 1.32832 -s 2 -d 0 -p ack -e 40 -c 1 -i 35 -a 1 -x {2.0 0.0 17 ------- null}
- -t 1.32832 -s 2 -d 0 -p ack -e 40 -c 1 -i 35 -a 1 -x {2.0 0.0 17 ------- null}
h -t 1.32832 -s 2 -d 0 -p ack -e 40 -c 1 -i 35 -a 1 -x {2.0 0.0 -1 ------- null}
r -t 1.34864 -s 2 -d 0 -p ack -e 40 -c 1 -i 35 -a 1 -x {2.0 0.0 17 ------- null}
+ -t 1.35 -s 0 -d 2 -p tcp -e 1040 -c 1 -i 36 -a 1 -x {0.0 2.0 18 ------- null}
- -t 1.35 -s 0 -d 2 -p tcp -e 1040 -c 1 -i 36 -a 1 -x {0.0 2.0 18 ------- null}
h -t 1.35 -s 0 -d 2 -p tcp -e 1040 -c 1 -i 36 -a 1 -x {0.0 2.0 -1 ------- null}
r -t 1.37832 -s 0 -d 2 -p tcp -e 1040 -c 1 -i 36 -a 1 -x {0.0 2.0 18 ------- null}
+ -t 1.37832 -s 2 -d 0 -p ack -e 40 -c 1 -i 37 -a 1 -x {2.0 0.0 18 ------- null}
- -t 1.37832 -s 2 -d 0 -p ack -e 40 -c 1 -i 37 -a 1 -x {2.0 0.0 18 ------- null}
h -t 1.37832 -s 2 -d 0 -p ack -e 40 -c 1 -i 37 -a 1 -x {2.0 0.0 -1 ------- null}
r -t 1.39864 -s 2 -d 0 -p ack -e 40 -c 1 -i 37 -a 1 -x {2.0 0.0 18 ------- null}
+ -t 1.4 -s 0 -d 2 -p tcp -e 1040 -c 1 -i 38 -a 1 -x {0.0 2.0 19 ------- null}
- -t 1.4 -s 0 -d 2 -p tcp -e 1040 -c 1 -i 38 -a 1 -x {0.0 2.0 19 ------- null}
h -t 1.4 -s 0 -d 2 -p tcp -e 1040 -c 1 -i 38 -a 1 -x {0.0 2.0 -1 ------- null}
r -t 1.42832 -s 0 -d 2 -p tcp -e 1040 -c 1 -i 38 -a 1 -x {0.0 2.0 19 ------- null}
+ -t 1.42832 -s 2 -d 0 -p ack -e 40 -c 1 -i 39 -a 1 -x {2.0 0.0 19 ------- null}
- -t 1.42832 -s 2 -d 0 -p ack -e 40 -c 1 -i 39 -a 1 -x {2.0 0.0 19 ------- null}
h -t 1.42832 -s 2 -d 0 -p ack -e 40 -c 1 -i 39 -a 1 -x {2.0 0.0 -1 ------- null}
r -t 1.44864 -s 2 -d 0 -p ack -e 40 -c 1 -i 39 -a 1 -x {2.0 0.0 19 ------- null}
+ -t 1.45 -s 0 -d 2 -p tcp -e 1040 -c 1 -i 40 -a 1 -x {0.0 2.0 20 ------- null}
- -t 1.45 -s 0 -d 2 -p tcp -e 1040 -c 1 -i 40 -a 1 -x {0.0 2.0 20 ------- null}
h -t 1.45 -s 0 -d 2 -p tcp -e 1040 -c 1 -i 40 -a 1 -x {0.0 2.0 -1 ------- null}
r -t 1.47832 -s 0 -d 2 -p tcp -e 1040 -c 1 -i 40 -a 1 -x {0.0 2.0 20 ------- null}
+ -t 1.47832 -s 2 -d 0 -p ack -e 40 -c 1 -i 41 -a 1 -x {2.0 0.0 20 ------- null}
- -t 1.47832 -s 2 -d 0 -p ack -e 40 -c 1 -i 41 -a 1 -x {2.0 0.0 20 ------- null}
h -t 1.47832 -s 2 -d 0 -p ack -e 40 -c 1 -i 41 -a 1 -x {2.0 0.0 -1 ------- null}
r -t 1.49864 -s 2 -d 0 -p ack -e 40 -c 1 -i 41 -a 1 -x {2.0 0.0 20 ------- null}
+ -t 1.5 -s 0 -d 2 -p tcp -e 1040 -c 1 -i 42 -a 1 -x {0.0 2.0 21 ------- null}
- -t 1.5 -s 0 -d 2 -p tcp -e 1040 -c 1 -i 42 -a 1 -x {0.0 2.0 21 ------- null}
h -t 1.5 -s 0 -d 2 -p tcp -e 1040 -c 1 -i 42 -a 1 -x {0.0 2.0 -1 ------- null}
r -t 1.52832 -s 0 -d 2 -p tcp -e 1040 -c 1 -i 42 -a 1 -x {0.0 2.0 21 ------- null}
+ -t 1.52832 -s 2 -d 0 -p ack -e 40 -c 1 -i 43 -a 1 -x {2.0 0.0 21 ------- null}
- -t 1.52832 -s 2 -d 0 -p ack -e 40 -c 1 -i 43 -a 1 -x {2.0 0.0 21 ------- null}
h -t 1.52832 -s 2 -d 0 -p ack -e 40 -c 1 -i 43 -a 1 -x {2.0 0.0 -1 ------- null}
r -t 1.54864 -s 2 -d 0 -p ack -e 40 -c 1 -i 43 -a 1 -x {2.0 0.0 21 ------- null}
+ -t 1.55 -s 0 -d 2 -p tcp -e 1040 -c 1 -i 44 -a 1 -x {0.0 2.0 22 ------- null}
- -t 1.55 -s 0 -d 2 -p tcp -e 1040 -c 1 -i 44 -a 1 -x {0.0 2.0 22 ------- null}
h -t 1.55 -s 0 -d 2 -p tcp -e 1040 -c 1 -i 44 -a 1 -x {0.0 2.0 -1 ------- null}
r -t 1.57832 -s 0 -d 2 -p tcp -e 1040 -c 1 -i 44 -a 1 -x {0.0 2.0 22 ------- null}
+ -t 1.57832 -s 2 -d 0 -p ack -e 40 -c 1 -i 45 -a 1 -x {2.0 0.0 22 ------- null}
- -t 1.57832 -s 2 -d 0 -p ack -e 40 -c 1 -i 45 -a 1 -x {2.0 0.0 22 ------- null}
h -t 1.57832 -s 2 -d 0 -p ack -e 40 -c 1 -i 45 -a 1 -x {2.0 0.0 -1 ------- null}
r -t 1.59864 -s 2 -d 0 -p ack -e 40 -c 1 -i 45 -a 1 -x {2.0 0.0 22 ------- null}
+ -t 1.6 -s 0 -d 2 -p tcp -e 1040 -c 1 -i 46 -a 1 -x {0.0 2.0 23 ------- null}
- -t 1.6 -s 0 -d 2 -p tcp -e 1040 -c 1 -i 46 -a 1 -x {0.0 2.0 23 ------- null}
h -t 1.6 -s 0 -d 2 -p tcp -e 1040 -c 1 -i 46 -a 1 -x {0.0 2.0 -1 ------- null}
r -t 1.62832 -s 0 -d 2 -p tcp -e 1040 -c 1 -i 46 -a 1 -x {0.0 2.0 23 ------- null}
+ -t 1.62832 -s 2 -d 0 -p ack -e 40 -c 1 -i 47 -a 1 -x {2.0 0.0 23 ------- null}
- -t 1.62832 -s 2 -d 0 -p ack -e 40 -c 1 -i 47 -a 1 -x {2.0 0.0 23 ------- null}
h -t 1.62832 -s 2 -d 0 -p ack -e 40 -c 1 -i 47 -a 1 -x {2.0 0.0 -1 ------- null}
r -t 1.64864 -s 2 -d 0 -p ack -e 40 -c 1 -i 47 -a 1 -x {2.0 0.0 23 ------- null}
+ -t 1.65 -s 0 -d 2 -p tcp -e 1040 -c 1 -i 48 -a 1 -x {0.0 2.0 24 ------- null}
- -t 1.65 -s 0 -d 2 -p tcp -e 1040 -c 1 -i 48 -a 1 -x {0.0 2.0 24 ------- null}
h -t 1.65 -s 0 -d 2 -p tcp -e 1040 -c 1 -i 48 -a 1 -x {0.0 2.0 -1 ------- null}
r -t 1.67832 -s 0 -d 2 -p tcp -e 1040 -c 1 -i 48 -a 1 -x {0.0 2.0 24 ------- null}
+ -t 1.67832 -s 2 -d 0 -p ack -e 40 -c 1 -i 49 -a 1 -x {2.0 0.0 24 ------- null}
- -t 1.67832 -s 2 -d 0 -p ack -e 40 -c 1 -i 49 -a 1 -x {2.0 0.0 24 ------- null}
h -t 1.67832 -s 2 -d 0 -p ack -e 40 -c 1 -i 49 -a 1 -x {2.0 0.0 -1 ------- null}
r -t 1.69864 -s 2 -d 0 -p ack -e 40 -c 1 -i 49 -a 1 -x {2.0 0.0 24 ------- null}
+ -t 1.7 -s 0 -d 2 -p tcp -e 1040 -c 1 -i 50 -a 1 -x {0.0 2.0 25 ------- null}
- -t 1.7 -s 0 -d 2 -p tcp -e 1040 -c 1 -i 50 -a 1 -x {0.0 2.0 25 ------- null}
h -t 1.7 -s 0 -d 2 -p tcp -e 1040 -c 1 -i 50 -a 1 -x {0.0 2.0 -1 ------- null}
r -t 1.72832 -s 0 -d 2 -p tcp -e 1040 -c 1 -i 50 -a 1 -x {0.0 2.0 25 ------- null}
+ -t 1.72832 -s 2 -d 0 -p ack -e 40 -c 1 -i 51 -a 1 -x {2.0 0.0 25 ------- null}
- -t 1.72832 -s 2 -d 0 -p ack -e 40 -c 1 -i 51 -a 1 -x {2.0 0.0 25 ------- null}
h -t 1.72832 -s 2 -d 0 -p ack -e 40 -c 1 -i 51 -a 1 -x {2.0 0.0 -1 ------- null}
r -t 1.74864 -s 2 -d 0 -p ack -e 40 -c 1 -i 51 -a 1 -x {2.0 0.0 25 ------- null}
+ -t 1.75 -s 0 -d 2 -p tcp -e 1040 -c 1 -i 52 -a 1 -x {0.0 2.0 26 ------- null}
- -t 1.75 -s 0 -d 2 -p tcp -e 1040 -c 1 -i 52 -a 1 -x {0.0 2.0 26 ------- null}
h -t 1.75 -s 0 -d 2 -p tcp -e 1040 -c 1 -i 52 -a 1 -x {0.0 2.0 -1 ------- null}
r -t 1.77832 -s 0 -d 2 -p tcp -e 1040 -c 1 -i 52 -a 1 -x {0.0 2.0 26 ------- null}
+ -t 1.77832 -s 2 -d 0 -p ack -e 40 -c 1 -i 53 -a 1 -x {2.0 0.0 26 ------- null}
- -t 1.77832 -s 2 -d 0 -p ack -e 40 -c 1 -i 53 -a 1 -x {2.0 0.0 26 ------- null}
h -t 1.77832 -s 2 -d 0 -p ack -e 40 -c 1 -i 53 -a 1 -x {2.0 0.0 -1 ------- null}
r -t 1.79864 -s 2 -d 0 -p ack -e 40 -c 1 -i 53 -a 1 -x {2.0 0.0 26 ------- null}
+ -t 1.8 -s 0 -d 2 -p tcp -e 1040 -c 1 -i 54 -a 1 -x {0.0 2.0 27 ------- null}
- -t 1.8 -s 0 -d 2 -p tcp -e 1040 -c 1 -i 54 -a 1 -x {0.0 2.0 27 ------- null}
h -t 1.8 -s 0 -d 2 -p tcp -e 1040 -c 1 -i 54 -a 1 -x {0.0 2.0 -1 ------- null}
r -t 1.82832 -s 0 -d 2 -p tcp -e 1040 -c 1 -i 54 -a 1 -x {0.0 2.0 27 ------- null}
+ -t 1.82832 -s 2 -d 0 -p ack -e 40 -c 1 -i 55 -a 1 -x {2.0 0.0 27 ------- null}
- -t 1.82832 -s 2 -d 0 -p ack -e 40 -c 1 -i 55 -a 1 -x {2.0 0.0 27 ------- null}
h -t 1.82832 -s 2 -d 0 -p ack -e 40 -c 1 -i 55 -a 1 -x {2.0 0.0 -1 ------- null}
r -t 1.84864 -s 2 -d 0 -p ack -e 40 -c 1 -i 55 -a 1 -x {2.0 0.0 27 ------- null}
+ -t 1.85 -s 0 -d 2 -p tcp -e 1040 -c 1 -i 56 -a 1 -x {0.0 2.0 28 ------- null}
- -t 1.85 -s 0 -d 2 -p tcp -e 1040 -c 1 -i 56 -a 1 -x {0.0 2.0 28 ------- null}
h -t 1.85 -s 0 -d 2 -p tcp -e 1040 -c 1 -i 56 -a 1 -x {0.0 2.0 -1 ------- null}
r -t 1.87832 -s 0 -d 2 -p tcp -e 1040 -c 1 -i 56 -a 1 -x {0.0 2.0 28 ------- null}
+ -t 1.87832 -s 2 -d 0 -p ack -e 40 -c 1 -i 57 -a 1 -x {2.0 0.0 28 ------- null}
- -t 1.87832 -s 2 -d 0 -p ack -e 40 -c 1 -i 57 -a 1 -x {2.0 0.0 28 ------- null}
h -t 1.87832 -s 2 -d 0 -p ack -e 40 -c 1 -i 57 -a 1 -x {2.0 0.0 -1 ------- null}
r -t 1.89864 -s 2 -d 0 -p ack -e 40 -c 1 -i 57 -a 1 -x {2.0 0.0 28 ------- null}
+ -t 1.9 -s 0 -d 2 -p tcp -e 1040 -c 1 -i 58 -a 1 -x {0.0 2.0 29 ------- null}
- -t 1.9 -s 0 -d 2 -p tcp -e 1040 -c 1 -i 58 -a 1 -x {0.0 2.0 29 ------- null}
h -t 1.9 -s 0 -d 2 -p tcp -e 1040 -c 1 -i 58 -a 1 -x {0.0 2.0 -1 ------- null}
r -t 1.92832 -s 0 -d 2 -p tcp -e 1040 -c 1 -i 58 -a 1 -x {0.0 2.0 29 ------- null}
+ -t 1.92832 -s 2 -d 0 -p ack -e 40 -c 1 -i 59 -a 1 -x {2.0 0.0 29 ------- null}
- -t 1.92832 -s 2 -d 0 -p ack -e 40 -c 1 -i 59 -a 1 -x {2.0 0.0 29 ------- null}
h -t 1.92832 -s 2 -d 0 -p ack -e 40 -c 1 -i 59 -a 1 -x {2.0 0.0 -1 ------- null}
r -t 1.94864 -s 2 -d 0 -p ack -e 40 -c 1 -i 59 -a 1 -x {2.0 0.0 29 ------- null}
+ -t 1.95 -s 0 -d 2 -p tcp -e 1040 -c 1 -i 60 -a 1 -x {0.0 2.0 30 ------- null}
- -t 1.95 -s 0 -d 2 -p tcp -e 1040 -c 1 -i 60 -a 1 -x {0.0 2.0 30 ------- null}
h -t 1.95 -s 0 -d 2 -p tcp -e 1040 -c 1 -i 60 -a 1 -x {0.0 2.0 -1 ------- null}
r -t 1.97832 -s 0 -d 2 -p tcp -e 1040 -c 1 -i 60 -a 1 -x {0.0 2.0 30 ------- null}
+ -t 1.97832 -s 2 -d 0 -p ack -e 40 -c 1 -i 61 -a 1 -x {2.0 0.0 30 ------- null}
- -t 1.97832 -s 2 -d 0 -p ack -e 40 -c 1 -i 61 -a 1 -x {2.0 0.0 30 ------- null}
h -t 1.97832 -s 2 -d 0 -p ack -e 40 -c 1 -i 61 -a 1 -x {2.0 0.0 -1 ------- null}
r -t 1.99864 -s 2 -d 0 -p ack -e 40 -c 1 -i 61 -a 1 -x {2.0 0.0 30 ------- null}
+ -t 2 -s 0 -d 2 -p tcp -e 1040 -c 1 -i 62 -a 1 -x {0.0 2.0 31 ------- null}
- -t 2 -s 0 -d 2 -p tcp -e 1040 -c 1 -i 62 -a 1 -x {0.0 2.0 31 ------- null}
h -t 2 -s 0 -d 2 -p tcp -e 1040 -c 1 -i 62 -a 1 -x {0.0 2.0 -1 ------- null}
r -t 2.02832 -s 0 -d 2 -p tcp -e 1040 -c 1 -i 62 -a 1 -x {0.0 2.0 31 ------- null}
+ -t 2.02832 -s 2 -d 0 -p ack -e 40 -c 1 -i 63 -a 1 -x {2.0 0.0 31 ------- null}
- -t 2.02832 -s 2 -d 0 -p ack -e 40 -c 1 -i 63 -a 1 -x {2.0 0.0 31 ------- null}
h -t 2.02832 -s 2 -d 0 -p ack -e 40 -c 1 -i 63 -a 1 -x {2.0 0.0 -1 ------- null}
r -t 2.04864 -s 2 -d 0 -p ack -e 40 -c 1 -i 63 -a 1 -x {2.0 0.0 31 ------- null}
+ -t 2.05 -s 0 -d 2 -p tcp -e 1040 -c 1 -i 64 -a 1 -x {0.0 2.0 32 ------- null}
- -t 2.05 -s 0 -d 2 -p tcp -e 1040 -c 1 -i 64 -a 1 -x {0.0 2.0 32 ------- null}
h -t 2.05 -s 0 -d 2 -p tcp -e 1040 -c 1 -i 64 -a 1 -x {0.0 2.0 -1 ------- null}
r -t 2.07832 -s 0 -d 2 -p tcp -e 1040 -c 1 -i 64 -a 1 -x {0.0 2.0 32 ------- null}
+ -t 2.07832 -s 2 -d 0 -p ack -e 40 -c 1 -i 65 -a 1 -x {2.0 0.0 32 ------- null}
- -t 2.07832 -s 2 -d 0 -p ack -e 40 -c 1 -i 65 -a 1 -x {2.0 0.0 32 ------- null}
h -t 2.07832 -s 2 -d 0 -p ack -e 40 -c 1 -i 65 -a 1 -x {2.0 0.0 -1 ------- null}
r -t 2.09864 -s 2 -d 0 -p ack -e 40 -c 1 -i 65 -a 1 -x {2.0 0.0 32 ------- null}
+ -t 2.1 -s 0 -d 2 -p tcp -e 1040 -c 1 -i 66 -a 1 -x {0.0 2.0 33 ------- null}
- -t 2.1 -s 0 -d 2 -p tcp -e 1040 -c 1 -i 66 -a 1 -x {0.0 2.0 33 ------- null}
h -t 2.1 -s 0 -d 2 -p tcp -e 1040 -c 1 -i 66 -a 1 -x {0.0 2.0 -1 ------- null}
r -t 2.12832 -s 0 -d 2 -p tcp -e 1040 -c 1 -i 66 -a 1 -x {0.0 2.0 33 ------- null}
+ -t 2.12832 -s 2 -d 0 -p ack -e 40 -c 1 -i 67 -a 1 -x {2.0 0.0 33 ------- null}
- -t 2.12832 -s 2 -d 0 -p ack -e 40 -c 1 -i 67 -a 1 -x {2.0 0.0 33 ------- null}
h -t 2.12832 -s 2 -d 0 -p ack -e 40 -c 1 -i 67 -a 1 -x {2.0 0.0 -1 ------- null}
r -t 2.14864 -s 2 -d 0 -p ack -e 40 -c 1 -i 67 -a 1 -x {2.0 0.0 33 ------- null}
+ -t 2.15 -s 0 -d 2 -p tcp -e 1040 -c 1 -i 68 -a 1 -x {0.0 2.0 34 ------- null}
- -t 2.15 -s 0 -d 2 -p tcp -e 1040 -c 1 -i 68 -a 1 -x {0.0 2.0 34 ------- null}
h -t 2.15 -s 0 -d 2 -p tcp -e 1040 -c 1 -i 68 -a 1 -x {0.0 2.0 -1 ------- null}
r -t 2.17832 -s 0 -d 2 -p tcp -e 1040 -c 1 -i 68 -a 1 -x {0.0 2.0 34 ------- null}
+ -t 2.17832 -s 2 -d 0 -p ack -e 40 -c 1 -i 69 -a 1 -x {2.0 0.0 34 ------- null}
- -t 2.17832 -s 2 -d 0 -p ack -e 40 -c 1 -i 69 -a 1 -x {2.0 0.0 34 ------- null}
h -t 2.17832 -s 2 -d 0 -p ack -e 40 -c 1 -i 69 -a 1 -x {2.0 0.0 -1 ------- null}
r -t 2.19864 -s 2 -d 0 -p ack -e 40 -c 1 -i 69 -a 1 -x {2.0 0.0 34 ------- null}
+ -t 2.2 -s 0 -d 2 -p tcp -e 1040 -c 1 -i 70 -a 1 -x {0.0 2.0 35 ------- null}
- -t 2.2 -s 0 -d 2 -p tcp -e 1040 -c 1 -i 70 -a 1 -x {0.0 2.0 35 ------- null}
h -t 2.2 -s 0 -d 2 -p tcp -e 1040 -c 1 -i 70 -a 1 -x {0.0 2.0 -1 ------- null}
r -t 2.22832 -s 0 -d 2 -p tcp -e 1040 -c 1 -i 70 -a 1 -x {0.0 2.0 35 ------- null}
+ -t 2.22832 -s 2 -d 0 -p ack -e 40 -c 1 -i 71 -a 1 -x {2.0 0.0 35 ------- null}
- -t 2.22832 -s 2 -d 0 -p ack -e 40 -c 1 -i 71 -a 1 -x {2.0 0.0 35 ------- null}
h -t 2.22832 -s 2 -d 0 -p ack -e 40 -c 1 -i 71 -a 1 -x {2.0 0.0 -1 ------- null}
r -t 2.24864 -s 2 -d 0 -p ack -e 40 -c 1 -i 71 -a 1 -x {2.0 0.0 35 ------- null}
+ -t 2.25 -s 0 -d 2 -p tcp -e 1040 -c 1 -i 72 -a 1 -x {0.0 2.0 36 ------- null}
- -t 2.25 -s 0 -d 2 -p tcp -e 1040 -c 1 -i 72 -a 1 -x {0.0 2.0 36 ------- null}
h -t 2.25 -s 0 -d 2 -p tcp -e 1040 -c 1 -i 72 -a 1 -x {0.0 2.0 -1 ------- null}
r -t 2.27832 -s 0 -d 2 -p tcp -e 1040 -c 1 -i 72 -a 1 -x {0.0 2.0 36 ------- null}
+ -t 2.27832 -s 2 -d 0 -p ack -e 40 -c 1 -i 73 -a 1 -x {2.0 0.0 36 ------- null}
- -t 2.27832 -s 2 -d 0 -p ack -e 40 -c 1 -i 73 -a 1 -x {2.0 0.0 36 ------- null}
h -t 2.27832 -s 2 -d 0 -p ack -e 40 -c 1 -i 73 -a 1 -x {2.0 0.0 -1 ------- null}
r -t 2.29864 -s 2 -d 0 -p ack -e 40 -c 1 -i 73 -a 1 -x {2.0 0.0 36 ------- null}
+ -t 2.3 -s 0 -d 2 -p tcp -e 1040 -c 1 -i 74 -a 1 -x {0.0 2.0 37 ------- null}
- -t 2.3 -s 0 -d 2 -p tcp -e 1040 -c 1 -i 74 -a 1 -x {0.0 2.0 37 ------- null}
h -t 2.3 -s 0 -d 2 -p tcp -e 1040 -c 1 -i 74 -a 1 -x {0.0 2.0 -1 ------- null}
r -t 2.32832 -s 0 -d 2 -p tcp -e 1040 -c 1 -i 74 -a 1 -x {0.0 2.0 37 ------- null}
+ -t 2.32832 -s 2 -d 0 -p ack -e 40 -c 1 -i 75 -a 1 -x {2.0 0.0 37 ------- null}
- -t 2.32832 -s 2 -d 0 -p ack -e 40 -c 1 -i 75 -a 1 -x {2.0 0.0 37 ------- null}
h -t 2.32832 -s 2 -d 0 -p ack -e 40 -c 1 -i 75 -a 1 -x {2.0 0.0 -1 ------- null}
r -t 2.34864 -s 2 -d 0 -p ack -e 40 -c 1 -i 75 -a 1 -x {2.0 0.0 37 ------- null}
+ -t 2.35 -s 0 -d 2 -p tcp -e 1040 -c 1 -i 76 -a 1 -x {0.0 2.0 38 ------- null}
- -t 2.35 -s 0 -d 2 -p tcp -e 1040 -c 1 -i 76 -a 1 -x {0.0 2.0 38 ------- null}
h -t 2.35 -s 0 -d 2 -p tcp -e 1040 -c 1 -i 76 -a 1 -x {0.0 2.0 -1 ------- null}
r -t 2.37832 -s 0 -d 2 -p tcp -e 1040 -c 1 -i 76 -a 1 -x {0.0 2.0 38 ------- null}
+ -t 2.37832 -s 2 -d 0 -p ack -e 40 -c 1 -i 77 -a 1 -x {2.0 0.0 38 ------- null}
- -t 2.37832 -s 2 -d 0 -p ack -e 40 -c 1 -i 77 -a 1 -x {2.0 0.0 38 ------- null}
h -t 2.37832 -s 2 -d 0 -p ack -e 40 -c 1 -i 77 -a 1 -x {2.0 0.0 -1 ------- null}
r -t 2.39864 -s 2 -d 0 -p ack -e 40 -c 1 -i 77 -a 1 -x {2.0 0.0 38 ------- null}
+ -t 2.4 -s 0 -d 2 -p tcp -e 1040 -c 1 -i 78 -a 1 -x {0.0 2.0 39 ------- null}
- -t 2.4 -s 0 -d 2 -p tcp -e 1040 -c 1 -i 78 -a 1 -x {0.0 2.0 39 ------- null}
h -t 2.4 -s 0 -d 2 -p tcp -e 1040 -c 1 -i 78 -a 1 -x {0.0 2.0 -1 ------- null}
r -t 2.42832 -s 0 -d 2 -p tcp -e 1040 -c 1 -i 78 -a 1 -x {0.0 2.0 39 ------- null}
+ -t 2.42832 -s 2 -d 0 -p ack -e 40 -c 1 -i 79 -a 1 -x {2.0 0.0 39 ------- null}
- -t 2.42832 -s 2 -d 0 -p ack -e 40 -c 1 -i 79 -a 1 -x {2.0 0.0 39 ------- null}
h -t 2.42832 -s 2 -d 0 -p ack -e 40 -c 1 -i 79 -a 1 -x {2.0 0.0 -1 ------- null}
r -t 2.44864 -s 2 -d 0 -p ack -e 40 -c 1 -i 79 -a 1 -x {2.0 0.0 39 ------- null}
+ -t 2.45 -s 0 -d 2 -p tcp -e 1040 -c 1 -i 80 -a 1 -x {0.0 2.0 40 ------- null}
- -t 2.45 -s 0 -d 2 -p tcp -e 1040 -c 1 -i 80 -a 1 -x {0.0 2.0 40 ------- null}
h -t 2.45 -s 0 -d 2 -p tcp -e 1040 -c 1 -i 80 -a 1 -x {0.0 2.0 -1 ------- null}
r -t 2.47832 -s 0 -d 2 -p tcp -e 1040 -c 1 -i 80 -a 1 -x {0.0 2.0 40 ------- null}
+ -t 2.47832 -s 2 -d 0 -p ack -e 40 -c 1 -i 81 -a 1 -x {2.0 0.0 40 ------- null}
- -t 2.47832 -s 2 -d 0 -p ack -e 40 -c 1 -i 81 -a 1 -x {2.0 0.0 40 ------- null}
h -t 2.47832 -s 2 -d 0 -p ack -e 40 -c 1 -i 81 -a 1 -x {2.0 0.0 -1 ------- null}
r -t 2.49864 -s 2 -d 0 -p ack -e 40 -c 1 -i 81 -a 1 -x {2.0 0.0 40 ------- null}
+ -t 2.5 -s 0 -d 2 -p tcp -e 1040 -c 1 -i 82 -a 1 -x {0.0 2.0 41 ------- null}
- -t 2.5 -s 0 -d 2 -p tcp -e 1040 -c 1 -i 82 -a 1 -x {0.0 2.0 41 ------- null}
h -t 2.5 -s 0 -d 2 -p tcp -e 1040 -c 1 -i 82 -a 1 -x {0.0 2.0 -1 ------- null}
r -t 2.52832 -s 0 -d 2 -p tcp -e 1040 -c 1 -i 82 -a 1 -x {0.0 2.0 41 ------- null}
+ -t 2.52832 -s 2 -d 0 -p ack -e 40 -c 1 -i 83 -a 1 -x {2.0 0.0 41 ------- null}
- -t 2.52832 -s 2 -d 0 -p ack -e 40 -c 1 -i 83 -a 1 -x {2.0 0.0 41 ------- null}
h -t 2.52832 -s 2 -d 0 -p ack -e 40 -c 1 -i 83 -a 1 -x {2.0 0.0 -1 ------- null}
r -t 2.54864 -s 2 -d 0 -p ack -e 40 -c 1 -i 83 -a 1 -x {2.0 0.0 41 ------- null}
+ -t 2.55 -s 0 -d 2 -p tcp -e 1040 -c 1 -i 84 -a 1 -x {0.0 2.0 42 ------- null}
- -t 2.55 -s 0 -d 2 -p tcp -e 1040 -c 1 -i 84 -a 1 -x {0.0 2.0 42 ------- null}
h -t 2.55 -s 0 -d 2 -p tcp -e 1040 -c 1 -i 84 -a 1 -x {0.0 2.0 -1 ------- null}
r -t 2.57832 -s 0 -d 2 -p tcp -e 1040 -c 1 -i 84 -a 1 -x {0.0 2.0 42 ------- null}
+ -t 2.57832 -s 2 -d 0 -p ack -e 40 -c 1 -i 85 -a 1 -x {2.0 0.0 42 ------- null}
- -t 2.57832 -s 2 -d 0 -p ack -e 40 -c 1 -i 85 -a 1 -x {2.0 0.0 42 ------- null}
h -t 2.57832 -s 2 -d 0 -p ack -e 40 -c 1 -i 85 -a 1 -x {2.0 0.0 -1 ------- null}
r -t 2.59864 -s 2 -d 0 -p ack -e 40 -c 1 -i 85 -a 1 -x {2.0 0.0 42 ------- null}
+ -t 2.6 -s 0 -d 2 -p tcp -e 1040 -c 1 -i 86 -a 1 -x {0.0 2.0 43 ------- null}
- -t 2.6 -s 0 -d 2 -p tcp -e 1040 -c 1 -i 86 -a 1 -x {0.0 2.0 43 ------- null}
h -t 2.6 -s 0 -d 2 -p tcp -e 1040 -c 1 -i 86 -a 1 -x {0.0 2.0 -1 ------- null}
r -t 2.62832 -s 0 -d 2 -p tcp -e 1040 -c 1 -i 86 -a 1 -x {0.0 2.0 43 ------- null}
+ -t 2.62832 -s 2 -d 0 -p ack -e 40 -c 1 -i 87 -a 1 -x {2.0 0.0 43 ------- null}
- -t 2.62832 -s 2 -d 0 -p ack -e 40 -c 1 -i 87 -a 1 -x {2.0 0.0 43 ------- null}
h -t 2.62832 -s 2 -d 0 -p ack -e 40 -c 1 -i 87 -a 1 -x {2.0 0.0 -1 ------- null}
r -t 2.64864 -s 2 -d 0 -p ack -e 40 -c 1 -i 87 -a 1 -x {2.0 0.0 43 ------- null}
+ -t 2.65 -s 0 -d 2 -p tcp -e 1040 -c 1 -i 88 -a 1 -x {0.0 2.0 44 ------- null}
- -t 2.65 -s 0 -d 2 -p tcp -e 1040 -c 1 -i 88 -a 1 -x {0.0 2.0 44 ------- null}
h -t 2.65 -s 0 -d 2 -p tcp -e 1040 -c 1 -i 88 -a 1 -x {0.0 2.0 -1 ------- null}
r -t 2.67832 -s 0 -d 2 -p tcp -e 1040 -c 1 -i 88 -a 1 -x {0.0 2.0 44 ------- null}
+ -t 2.67832 -s 2 -d 0 -p ack -e 40 -c 1 -i 89 -a 1 -x {2.0 0.0 44 ------- null}
- -t 2.67832 -s 2 -d 0 -p ack -e 40 -c 1 -i 89 -a 1 -x {2.0 0.0 44 ------- null}
h -t 2.67832 -s 2 -d 0 -p ack -e 40 -c 1 -i 89 -a 1 -x {2.0 0.0 -1 ------- null}
r -t 2.69864 -s 2 -d 0 -p ack -e 40 -c 1 -i 89 -a 1 -x {2.0 0.0 44 ------- null}
+ -t 2.7 -s 0 -d 2 -p tcp -e 1040 -c 1 -i 90 -a 1 -x {0.0 2.0 45 ------- null}
- -t 2.7 -s 0 -d 2 -p tcp -e 1040 -c 1 -i 90 -a 1 -x {0.0 2.0 45 ------- null}
h -t 2.7 -s 0 -d 2 -p tcp -e 1040 -c 1 -i 90 -a 1 -x {0.0 2.0 -1 ------- null}
r -t 2.72832 -s 0 -d 2 -p tcp -e 1040 -c 1 -i 90 -a 1 -x {0.0 2.0 45 ------- null}
+ -t 2.72832 -s 2 -d 0 -p ack -e 40 -c 1 -i 91 -a 1 -x {2.0 0.0 45 ------- null}