n -t 0 -s 0 -S DLABEL -l "TCP Source" -L ""
n -t 0 -s 1 -S DLABEL -l "UDP Source" -L ""
n -t 0 -s 2 -S DLABEL -l "Router" -L ""
n -t 0 -s 3 -S DLABEL -l "Destination" -L ""
V -t * -v 1.0a5 -a 0
A -t * -n 1 -p 0 -o 0x7fffffff -c 30 -a 1
A -t * -h 1 -m 1073741823 -s 0
c -t * -i 1 -n red
c -t * -i 2 -n blue
n -t * -a 0 -s 0 -S UP -v circle -c black -i black
n -t * -a 1 -s 1 -S UP -v circle -c black -i black
n -t * -a 2 -s 2 -S UP -v circle -c black -i black
n -t * -a 3 -s 3 -S UP -v circle -c black -i black
l -t * -s 0 -d 2 -S UP -r 10000000 -D 0.01 -c black
l -t * -s 1 -d 2 -S UP -r 10000 -D 0.10000000000000001 -c black
l -t * -s 2 -d 3 -S UP -r 10000 -D 0.01 -c black
+ -t 0.1 -s 1 -d 2 -p cbr -e 210 -c 2 -i 0 -a 2 -x {1.0 3.1 0 ------- null}
- -t 0.1 -s 1 -d 2 -p cbr -e 210 -c 2 -i 0 -a 2 -x {1.0 3.1 0 ------- null}
h -t 0.1 -s 1 -d 2 -p cbr -e 210 -c 2 -i 0 -a 2 -x {1.0 3.1 -1 ------- null}
+ -t 0.10375 -s 1 -d 2 -p cbr -e 210 -c 2 -i 1 -a 2 -x {1.0 3.1 1 ------- null}
+ -t 0.1075 -s 1 -d 2 -p cbr -e 210 -c 2 -i 2 -a 2 -x {1.0 3.1 2 ------- null}
+ -t 0.11125 -s 1 -d 2 -p cbr -e 210 -c 2 -i 3 -a 2 -x {1.0 3.1 3 ------- null}
+ -t 0.115 -s 1 -d 2 -p cbr -e 210 -c 2 -i 4 -a 2 -x {1.0 3.1 4 ------- null}
+ -t 0.11875 -s 1 -d 2 -p cbr -e 210 -c 2 -i 5 -a 2 -x {1.0 3.1 5 ------- null}
+ -t 0.1225 -s 1 -d 2 -p cbr -e 210 -c 2 -i 6 -a 2 -x {1.0 3.1 6 ------- null}
+ -t 0.12625 -s 1 -d 2 -p cbr -e 210 -c 2 -i 7 -a 2 -x {1.0 3.1 7 ------- null}
+ -t 0.13 -s 1 -d 2 -p cbr -e 210 -c 2 -i 8 -a 2 -x {1.0 3.1 8 ------- null}
+ -t 0.13375 -s 1 -d 2 -p cbr -e 210 -c 2 -i 9 -a 2 -x {1.0 3.1 9 ------- null}
+ -t 0.1375 -s 1 -d 2 -p cbr -e 210 -c 2 -i 10 -a 2 -x {1.0 3.1 10 ------- null}
+ -t 0.14125 -s 1 -d 2 -p cbr -e 210 -c 2 -i 11 -a 2 -x {1.0 3.1 11 ------- null}
+ -t 0.145 -s 1 -d 2 -p cbr -e 210 -c 2 -i 12 -a 2 -x {1.0 3.1 12 ------- null}
+ -t 0.14875 -s 1 -d 2 -p cbr -e 210 -c 2 -i 13 -a 2 -x {1.0 3.1 13 ------- null}
+ -t 0.1525 -s 1 -d 2 -p cbr -e 210 -c 2 -i 14 -a 2 -x {1.0 3.1 14 ------- null}
+ -t 0.15625 -s 1 -d 2 -p cbr -e 210 -c 2 -i 15 -a 2 -x {1.0 3.1 15 ------- null}
+ -t 0.16 -s 1 -d 2 -p cbr -e 210 -c 2 -i 16 -a 2 -x {1.0 3.1 16 ------- null}
+ -t 0.16375 -s 1 -d 2 -p cbr -e 210 -c 2 -i 17 -a 2 -x {1.0 3.1 17 ------- null}
+ -t 0.1675 -s 1 -d 2 -p cbr -e 210 -c 2 -i 18 -a 2 -x {1.0 3.1 18 ------- null}
+ -t 0.17125 -s 1 -d 2 -p cbr -e 210 -c 2 -i 19 -a 2 -x {1.0 3.1 19 ------- null}
+ -t 0.175 -s 1 -d 2 -p cbr -e 210 -c 2 -i 20 -a 2 -x {1.0 3.1 20 ------- null}
+ -t 0.17875 -s 1 -d 2 -p cbr -e 210 -c 2 -i 21 -a 2 -x {1.0 3.1 21 ------- null}
+ -t 0.1825 -s 1 -d 2 -p cbr -e 210 -c 2 -i 22 -a 2 -x {1.0 3.1 22 ------- null}
+ -t 0.18625 -s 1 -d 2 -p cbr -e 210 -c 2 -i 23 -a 2 -x {1.0 3.1 23 ------- null}
+ -t 0.19 -s 1 -d 2 -p cbr -e 210 -c 2 -i 24 -a 2 -x {1.0 3.1 24 ------- null}
+ -t 0.19375 -s 1 -d 2 -p cbr -e 210 -c 2 -i 25 -a 2 -x {1.0 3.1 25 ------- null}
+ -t 0.1975 -s 1 -d 2 -p cbr -e 210 -c 2 -i 26 -a 2 -x {1.0 3.1 26 ------- null}
+ -t 0.20125 -s 1 -d 2 -p cbr -e 210 -c 2 -i 27 -a 2 -x {1.0 3.1 27 ------- null}
+ -t 0.205 -s 1 -d 2 -p cbr -e 210 -c 2 -i 28 -a 2 -x {1.0 3.1 28 ------- null}
+ -t 0.20875 -s 1 -d 2 -p cbr -e 210 -c 2 -i 29 -a 2 -x {1.0 3.1 29 ------- null}
+ -t 0.2125 -s 1 -d 2 -p cbr -e 210 -c 2 -i 30 -a 2 -x {1.0 3.1 30 ------- null}
+ -t 0.21625 -s 1 -d 2 -p cbr -e 210 -c 2 -i 31 -a 2 -x {1.0 3.1 31 ------- null}
+ -t 0.22 -s 1 -d 2 -p cbr -e 210 -c 2 -i 32 -a 2 -x {1.0 3.1 32 ------- null}
+ -t 0.22375 -s 1 -d 2 -p cbr -e 210 -c 2 -i 33 -a 2 -x {1.0 3.1 33 ------- null}
+ -t 0.2275 -s 1 -d 2 -p cbr -e 210 -c 2 -i 34 -a 2 -x {1.0 3.1 34 ------- null}
+ -t 0.23125 -s 1 -d 2 -p cbr -e 210 -c 2 -i 35 -a 2 -x {1.0 3.1 35 ------- null}
+ -t 0.235 -s 1 -d 2 -p cbr -e 210 -c 2 -i 36 -a 2 -x {1.0 3.1 36 ------- null}
+ -t 0.23875 -s 1 -d 2 -p cbr -e 210 -c 2 -i 37 -a 2 -x {1.0 3.1 37 ------- null}
+ -t 0.2425 -s 1 -d 2 -p cbr -e 210 -c 2 -i 38 -a 2 -x {1.0 3.1 38 ------- null}
+ -t 0.24625 -s 1 -d 2 -p cbr -e 210 -c 2 -i 39 -a 2 -x {1.0 3.1 39 ------- null}
+ -t 0.25 -s 1 -d 2 -p cbr -e 210 -c 2 -i 40 -a 2 -x {1.0 3.1 40 ------- null}
+ -t 0.25375 -s 1 -d 2 -p cbr -e 210 -c 2 -i 41 -a 2 -x {1.0 3.1 41 ------- null}
+ -t 0.2575 -s 1 -d 2 -p cbr -e 210 -c 2 -i 42 -a 2 -x {1.0 3.1 42 ------- null}
+ -t 0.26125 -s 1 -d 2 -p cbr -e 210 -c 2 -i 43 -a 2 -x {1.0 3.1 43 ------- null}
+ -t 0.265 -s 1 -d 2 -p cbr -e 210 -c 2 -i 44 -a 2 -x {1.0 3.1 44 ------- null}
- -t 0.268 -s 1 -d 2 -p cbr -e 210 -c 2 -i 1 -a 2 -x {1.0 3.1 1 ------- null}
h -t 0.268 -s 1 -d 2 -p cbr -e 210 -c 2 -i 1 -a 2 -x {1.0 3.1 -1 ------- null}
+ -t 0.26875 -s 1 -d 2 -p cbr -e 210 -c 2 -i 45 -a 2 -x {1.0 3.1 45 ------- null}
+ -t 0.2725 -s 1 -d 2 -p cbr -e 210 -c 2 -i 46 -a 2 -x {1.0 3.1 46 ------- null}
+ -t 0.27625 -s 1 -d 2 -p cbr -e 210 -c 2 -i 47 -a 2 -x {1.0 3.1 47 ------- null}
+ -t 0.28 -s 1 -d 2 -p cbr -e 210 -c 2 -i 48 -a 2 -x {1.0 3.1 48 ------- null}
+ -t 0.28375 -s 1 -d 2 -p cbr -e 210 -c 2 -i 49 -a 2 -x {1.0 3.1 49 ------- null}
+ -t 0.2875 -s 1 -d 2 -p cbr -e 210 -c 2 -i 50 -a 2 -x {1.0 3.1 50 ------- null}
+ -t 0.29125 -s 1 -d 2 -p cbr -e 210 -c 2 -i 51 -a 2 -x {1.0 3.1 51 ------- null}
d -t 0.29125 -s 1 -d 2 -p cbr -e 210 -c 2 -i 51 -a 2 -x {1.0 3.1 51 ------- null}
+ -t 0.295 -s 1 -d 2 -p cbr -e 210 -c 2 -i 52 -a 2 -x {1.0 3.1 52 ------- null}
d -t 0.295 -s 1 -d 2 -p cbr -e 210 -c 2 -i 52 -a 2 -x {1.0 3.1 52 ------- null}
+ -t 0.29875 -s 1 -d 2 -p cbr -e 210 -c 2 -i 53 -a 2 -x {1.0 3.1 53 ------- null}
d -t 0.29875 -s 1 -d 2 -p cbr -e 210 -c 2 -i 53 -a 2 -x {1.0 3.1 53 ------- null}
+ -t 0.3 -s 0 -d 2 -p tcp -e 40 -c 1 -i 54 -a 1 -x {0.0 3.0 0 ------- null}
- -t 0.3 -s 0 -d 2 -p tcp -e 40 -c 1 -i 54 -a 1 -x {0.0 3.0 0 ------- null}
h -t 0.3 -s 0 -d 2 -p tcp -e 40 -c 1 -i 54 -a 1 -x {0.0 3.0 -1 ------- null}
+ -t 0.3025 -s 1 -d 2 -p cbr -e 210 -c 2 -i 55 -a 2 -x {1.0 3.1 54 ------- null}
d -t 0.3025 -s 1 -d 2 -p cbr -e 210 -c 2 -i 55 -a 2 -x {1.0 3.1 54 ------- null}
+ -t 0.30625 -s 1 -d 2 -p cbr -e 210 -c 2 -i 56 -a 2 -x {1.0 3.1 55 ------- null}
d -t 0.30625 -s 1 -d 2 -p cbr -e 210 -c 2 -i 56 -a 2 -x {1.0 3.1 55 ------- null}
+ -t 0.31 -s 1 -d 2 -p cbr -e 210 -c 2 -i 57 -a 2 -x {1.0 3.1 56 ------- null}
d -t 0.31 -s 1 -d 2 -p cbr -e 210 -c 2 -i 57 -a 2 -x {1.0 3.1 56 ------- null}
r -t 0.310032 -s 0 -d 2 -p tcp -e 40 -c 1 -i 54 -a 1 -x {0.0 3.0 0 ------- null}
+ -t 0.310032 -s 2 -d 3 -p tcp -e 40 -c 1 -i 54 -a 1 -x {0.0 3.0 0 ------- null}
- -t 0.310032 -s 2 -d 3 -p tcp -e 40 -c 1 -i 54 -a 1 -x {0.0 3.0 0 ------- null}
h -t 0.310032 -s 2 -d 3 -p tcp -e 40 -c 1 -i 54 -a 1 -x {0.0 3.0 -1 ------- null}
+ -t 0.31375 -s 1 -d 2 -p cbr -e 210 -c 2 -i 58 -a 2 -x {1.0 3.1 57 ------- null}
d -t 0.31375 -s 1 -d 2 -p cbr -e 210 -c 2 -i 58 -a 2 -x {1.0 3.1 57 ------- null}
+ -t 0.3175 -s 1 -d 2 -p cbr -e 210 -c 2 -i 59 -a 2 -x {1.0 3.1 58 ------- null}
d -t 0.3175 -s 1 -d 2 -p cbr -e 210 -c 2 -i 59 -a 2 -x {1.0 3.1 58 ------- null}
+ -t 0.32125 -s 1 -d 2 -p cbr -e 210 -c 2 -i 60 -a 2 -x {1.0 3.1 59 ------- null}
d -t 0.32125 -s 1 -d 2 -p cbr -e 210 -c 2 -i 60 -a 2 -x {1.0 3.1 59 ------- null}
+ -t 0.325 -s 1 -d 2 -p cbr -e 210 -c 2 -i 61 -a 2 -x {1.0 3.1 60 ------- null}
d -t 0.325 -s 1 -d 2 -p cbr -e 210 -c 2 -i 61 -a 2 -x {1.0 3.1 60 ------- null}
+ -t 0.32875 -s 1 -d 2 -p cbr -e 210 -c 2 -i 62 -a 2 -x {1.0 3.1 61 ------- null}
d -t 0.32875 -s 1 -d 2 -p cbr -e 210 -c 2 -i 62 -a 2 -x {1.0 3.1 61 ------- null}
+ -t 0.3325 -s 1 -d 2 -p cbr -e 210 -c 2 -i 63 -a 2 -x {1.0 3.1 62 ------- null}
d -t 0.3325 -s 1 -d 2 -p cbr -e 210 -c 2 -i 63 -a 2 -x {1.0 3.1 62 ------- null}
+ -t 0.33625 -s 1 -d 2 -p cbr -e 210 -c 2 -i 64 -a 2 -x {1.0 3.1 63 ------- null}
d -t 0.33625 -s 1 -d 2 -p cbr -e 210 -c 2 -i 64 -a 2 -x {1.0 3.1 63 ------- null}
+ -t 0.34 -s 1 -d 2 -p cbr -e 210 -c 2 -i 65 -a 2 -x {1.0 3.1 64 ------- null}
d -t 0.34 -s 1 -d 2 -p cbr -e 210 -c 2 -i 65 -a 2 -x {1.0 3.1 64 ------- null}
+ -t 0.34375 -s 1 -d 2 -p cbr -e 210 -c 2 -i 66 -a 2 -x {1.0 3.1 65 ------- null}
d -t 0.34375 -s 1 -d 2 -p cbr -e 210 -c 2 -i 66 -a 2 -x {1.0 3.1 65 ------- null}
+ -t 0.347499999999999 -s 1 -d 2 -p cbr -e 210 -c 2 -i 67 -a 2 -x {1.0 3.1 66 ------- null}
d -t 0.347499999999999 -s 1 -d 2 -p cbr -e 210 -c 2 -i 67 -a 2 -x {1.0 3.1 66 ------- null}
+ -t 0.351249999999999 -s 1 -d 2 -p cbr -e 210 -c 2 -i 68 -a 2 -x {1.0 3.1 67 ------- null}
d -t 0.351249999999999 -s 1 -d 2 -p cbr -e 210 -c 2 -i 68 -a 2 -x {1.0 3.1 67 ------- null}
r -t 0.352032 -s 2 -d 3 -p tcp -e 40 -c 1 -i 54 -a 1 -x {0.0 3.0 0 ------- null}
+ -t 0.352032 -s 3 -d 2 -p ack -e 40 -c 1 -i 69 -a 1 -x {3.0 0.0 0 ------- null}
- -t 0.352032 -s 3 -d 2 -p ack -e 40 -c 1 -i 69 -a 1 -x {3.0 0.0 0 ------- null}
h -t 0.352032 -s 3 -d 2 -p ack -e 40 -c 1 -i 69 -a 1 -x {3.0 0.0 -1 ------- null}
+ -t 0.354999999999999 -s 1 -d 2 -p cbr -e 210 -c 2 -i 70 -a 2 -x {1.0 3.1 68 ------- null}
d -t 0.354999999999999 -s 1 -d 2 -p cbr -e 210 -c 2 -i 70 -a 2 -x {1.0 3.1 68 ------- null}
+ -t 0.358749999999999 -s 1 -d 2 -p cbr -e 210 -c 2 -i 71 -a 2 -x {1.0 3.1 69 ------- null}
d -t 0.358749999999999 -s 1 -d 2 -p cbr -e 210 -c 2 -i 71 -a 2 -x {1.0 3.1 69 ------- null}
+ -t 0.362499999999999 -s 1 -d 2 -p cbr -e 210 -c 2 -i 72 -a 2 -x {1.0 3.1 70 ------- null}
d -t 0.362499999999999 -s 1 -d 2 -p cbr -e 210 -c 2 -i 72 -a 2 -x {1.0 3.1 70 ------- null}
+ -t 0.366249999999999 -s 1 -d 2 -p cbr -e 210 -c 2 -i 73 -a 2 -x {1.0 3.1 71 ------- null}
d -t 0.366249999999999 -s 1 -d 2 -p cbr -e 210 -c 2 -i 73 -a 2 -x {1.0 3.1 71 ------- null}
r -t 0.368 -s 1 -d 2 -p cbr -e 210 -c 2 -i 0 -a 2 -x {1.0 3.1 0 ------- null}
+ -t 0.368 -s 2 -d 3 -p cbr -e 210 -c 2 -i 0 -a 2 -x {1.0 3.1 0 ------- null}
- -t 0.368 -s 2 -d 3 -p cbr -e 210 -c 2 -i 0 -a 2 -x {1.0 3.1 0 ------- null}
h -t 0.368 -s 2 -d 3 -p cbr -e 210 -c 2 -i 0 -a 2 -x {1.0 3.1 -1 ------- null}
+ -t 0.369999999999999 -s 1 -d 2 -p cbr -e 210 -c 2 -i 74 -a 2 -x {1.0 3.1 72 ------- null}
d -t 0.369999999999999 -s 1 -d 2 -p cbr -e 210 -c 2 -i 74 -a 2 -x {1.0 3.1 72 ------- null}
+ -t 0.373749999999999 -s 1 -d 2 -p cbr -e 210 -c 2 -i 75 -a 2 -x {1.0 3.1 73 ------- null}
d -t 0.373749999999999 -s 1 -d 2 -p cbr -e 210 -c 2 -i 75 -a 2 -x {1.0 3.1 73 ------- null}
+ -t 0.377499999999999 -s 1 -d 2 -p cbr -e 210 -c 2 -i 76 -a 2 -x {1.0 3.1 74 ------- null}
d -t 0.377499999999999 -s 1 -d 2 -p cbr -e 210 -c 2 -i 76 -a 2 -x {1.0 3.1 74 ------- null}
+ -t 0.381249999999999 -s 1 -d 2 -p cbr -e 210 -c 2 -i 77 -a 2 -x {1.0 3.1 75 ------- null}
d -t 0.381249999999999 -s 1 -d 2 -p cbr -e 210 -c 2 -i 77 -a 2 -x {1.0 3.1 75 ------- null}
+ -t 0.384999999999999 -s 1 -d 2 -p cbr -e 210 -c 2 -i 78 -a 2 -x {1.0 3.1 76 ------- null}
d -t 0.384999999999999 -s 1 -d 2 -p cbr -e 210 -c 2 -i 78 -a 2 -x {1.0 3.1 76 ------- null}
+ -t 0.388749999999999 -s 1 -d 2 -p cbr -e 210 -c 2 -i 79 -a 2 -x {1.0 3.1 77 ------- null}
d -t 0.388749999999999 -s 1 -d 2 -p cbr -e 210 -c 2 -i 79 -a 2 -x {1.0 3.1 77 ------- null}
+ -t 0.392499999999999 -s 1 -d 2 -p cbr -e 210 -c 2 -i 80 -a 2 -x {1.0 3.1 78 ------- null}
d -t 0.392499999999999 -s 1 -d 2 -p cbr -e 210 -c 2 -i 80 -a 2 -x {1.0 3.1 78 ------- null}
r -t 0.394032 -s 3 -d 2 -p ack -e 40 -c 1 -i 69 -a 1 -x {3.0 0.0 0 ------- null}
+ -t 0.394032 -s 2 -d 0 -p ack -e 40 -c 1 -i 69 -a 1 -x {3.0 0.0 0 ------- null}
- -t 0.394032 -s 2 -d 0 -p ack -e 40 -c 1 -i 69 -a 1 -x {3.0 0.0 0 ------- null}
h -t 0.394032 -s 2 -d 0 -p ack -e 40 -c 1 -i 69 -a 1 -x {3.0 0.0 -1 ------- null}
+ -t 0.396249999999999 -s 1 -d 2 -p cbr -e 210 -c 2 -i 81 -a 2 -x {1.0 3.1 79 ------- null}
d -t 0.396249999999999 -s 1 -d 2 -p cbr -e 210 -c 2 -i 81 -a 2 -x {1.0 3.1 79 ------- null}
+ -t 0.399999999999999 -s 1 -d 2 -p cbr -e 210 -c 2 -i 82 -a 2 -x {1.0 3.1 80 ------- null}
d -t 0.399999999999999 -s 1 -d 2 -p cbr -e 210 -c 2 -i 82 -a 2 -x {1.0 3.1 80 ------- null}
+ -t 0.403749999999999 -s 1 -d 2 -p cbr -e 210 -c 2 -i 83 -a 2 -x {1.0 3.1 81 ------- null}
d -t 0.403749999999999 -s 1 -d 2 -p cbr -e 210 -c 2 -i 83 -a 2 -x {1.0 3.1 81 ------- null}
r -t 0.404064 -s 2 -d 0 -p ack -e 40 -c 1 -i 69 -a 1 -x {3.0 0.0 0 ------- null}
+ -t 0.404064 -s 0 -d 2 -p tcp -e 1040 -c 1 -i 84 -a 1 -x {0.0 3.0 1 ------- null}
- -t 0.404064 -s 0 -d 2 -p tcp -e 1040 -c 1 -i 84 -a 1 -x {0.0 3.0 1 ------- null}
h -t 0.404064 -s 0 -d 2 -p tcp -e 1040 -c 1 -i 84 -a 1 -x {0.0 3.0 -1 ------- null}
+ -t 0.404064 -s 0 -d 2 -p tcp -e 1040 -c 1 -i 85 -a 1 -x {0.0 3.0 2 ------- null}
- -t 0.404896 -s 0 -d 2 -p tcp -e 1040 -c 1 -i 85 -a 1 -x {0.0 3.0 2 ------- null}
h -t 0.404896 -s 0 -d 2 -p tcp -e 1040 -c 1 -i 85 -a 1 -x {0.0 3.0 -1 ------- null}
+ -t 0.407499999999999 -s 1 -d 2 -p cbr -e 210 -c 2 -i 86 -a 2 -x {1.0 3.1 82 ------- null}
d -t 0.407499999999999 -s 1 -d 2 -p cbr -e 210 -c 2 -i 86 -a 2 -x {1.0 3.1 82 ------- null}
+ -t 0.411249999999999 -s 1 -d 2 -p cbr -e 210 -c 2 -i 87 -a 2 -x {1.0 3.1 83 ------- null}
d -t 0.411249999999999 -s 1 -d 2 -p cbr -e 210 -c 2 -i 87 -a 2 -x {1.0 3.1 83 ------- null}
r -t 0.414896 -s 0 -d 2 -p tcp -e 1040 -c 1 -i 84 -a 1 -x {0.0 3.0 1 ------- null}
+ -t 0.414896 -s 2 -d 3 -p tcp -e 1040 -c 1 -i 84 -a 1 -x {0.0 3.0 1 ------- null}
+ -t 0.414999999999999 -s 1 -d 2 -p cbr -e 210 -c 2 -i 88 -a 2 -x {1.0 3.1 84 ------- null}
d -t 0.414999999999999 -s 1 -d 2 -p cbr -e 210 -c 2 -i 88 -a 2 -x {1.0 3.1 84 ------- null}
r -t 0.415728 -s 0 -d 2 -p tcp -e 1040 -c 1 -i 85 -a 1 -x {0.0 3.0 2 ------- null}
+ -t 0.415728 -s 2 -d 3 -p tcp -e 1040 -c 1 -i 85 -a 1 -x {0.0 3.0 2 ------- null}
+ -t 0.418749999999999 -s 1 -d 2 -p cbr -e 210 -c 2 -i 89 -a 2 -x {1.0 3.1 85 ------- null}
d -t 0.418749999999999 -s 1 -d 2 -p cbr -e 210 -c 2 -i 89 -a 2 -x {1.0 3.1 85 ------- null}
+ -t 0.422499999999999 -s 1 -d 2 -p cbr -e 210 -c 2 -i 90 -a 2 -x {1.0 3.1 86 ------- null}
d -t 0.422499999999999 -s 1 -d 2 -p cbr -e 210 -c 2 -i 90 -a 2 -x {1.0 3.1 86 ------- null}
+ -t 0.426249999999999 -s 1 -d 2 -p cbr -e 210 -c 2 -i 91 -a 2 -x {1.0 3.1 87 ------- null}
d -t 0.426249999999999 -s 1 -d 2 -p cbr -e 210 -c 2 -i 91 -a 2 -x {1.0 3.1 87 ------- null}
+ -t 0.429999999999999 -s 1 -d 2 -p cbr -e 210 -c 2 -i 92 -a 2 -x {1.0 3.1 88 ------- null}
d -t 0.429999999999999 -s 1 -d 2 -p cbr -e 210 -c 2 -i 92 -a 2 -x {1.0 3.1 88 ------- null}
+ -t 0.433749999999999 -s 1 -d 2 -p cbr -e 210 -c 2 -i 93 -a 2 -x {1.0 3.1 89 ------- null}
d -t 0.433749999999999 -s 1 -d 2 -p cbr -e 210 -c 2 -i 93 -a 2 -x {1.0 3.1 89 ------- null}
- -t 0.436 -s 1 -d 2 -p cbr -e 210 -c 2 -i 2 -a 2 -x {1.0 3.1 2 ------- null}
h -t 0.436 -s 1 -d 2 -p cbr -e 210 -c 2 -i 2 -a 2 -x {1.0 3.1 -1 ------- null}
+ -t 0.437499999999999 -s 1 -d 2 -p cbr -e 210 -c 2 -i 94 -a 2 -x {1.0 3.1 90 ------- null}
+ -t 0.441249999999999 -s 1 -d 2 -p cbr -e 210 -c 2 -i 95 -a 2 -x {1.0 3.1 91 ------- null}
d -t 0.441249999999999 -s 1 -d 2 -p cbr -e 210 -c 2 -i 95 -a 2 -x {1.0 3.1 91 ------- null}
+ -t 0.444999999999999 -s 1 -d 2 -p cbr -e 210 -c 2 -i 96 -a 2 -x {1.0 3.1 92 ------- null}
d -t 0.444999999999999 -s 1 -d 2 -p cbr -e 210 -c 2 -i 96 -a 2 -x {1.0 3.1 92 ------- null}
+ -t 0.448749999999999 -s 1 -d 2 -p cbr -e 210 -c 2 -i 97 -a 2 -x {1.0 3.1 93 ------- null}
d -t 0.448749999999999 -s 1 -d 2 -p cbr -e 210 -c 2 -i 97 -a 2 -x {1.0 3.1 93 ------- null}
+ -t 0.452499999999999 -s 1 -d 2 -p cbr -e 210 -c 2 -i 98 -a 2 -x {1.0 3.1 94 ------- null}
d -t 0.452499999999999 -s 1 -d 2 -p cbr -e 210 -c 2 -i 98 -a 2 -x {1.0 3.1 94 ------- null}
+ -t 0.456249999999999 -s 1 -d 2 -p cbr -e 210 -c 2 -i 99 -a 2 -x {1.0 3.1 95 ------- null}
d -t 0.456249999999999 -s 1 -d 2 -p cbr -e 210 -c 2 -i 99 -a 2 -x {1.0 3.1 95 ------- null}
+ -t 0.459999999999999 -s 1 -d 2 -p cbr -e 210 -c 2 -i 100 -a 2 -x {1.0 3.1 96 ------- null}
d -t 0.459999999999999 -s 1 -d 2 -p cbr -e 210 -c 2 -i 100 -a 2 -x {1.0 3.1 96 ------- null}
+ -t 0.463749999999999 -s 1 -d 2 -p cbr -e 210 -c 2 -i 101 -a 2 -x {1.0 3.1 97 ------- null}
d -t 0.463749999999999 -s 1 -d 2 -p cbr -e 210 -c 2 -i 101 -a 2 -x {1.0 3.1 97 ------- null}
+ -t 0.467499999999999 -s 1 -d 2 -p cbr -e 210 -c 2 -i 102 -a 2 -x {1.0 3.1 98 ------- null}
d -t 0.467499999999999 -s 1 -d 2 -p cbr -e 210 -c 2 -i 102 -a 2 -x {1.0 3.1 98 ------- null}
+ -t 0.471249999999999 -s 1 -d 2 -p cbr -e 210 -c 2 -i 103 -a 2 -x {1.0 3.1 99 ------- null}
d -t 0.471249999999999 -s 1 -d 2 -p cbr -e 210 -c 2 -i 103 -a 2 -x {1.0 3.1 99 ------- null}
+ -t 0.474999999999999 -s 1 -d 2 -p cbr -e 210 -c 2 -i 104 -a 2 -x {1.0 3.1 100 ------- null}
d -t 0.474999999999999 -s 1 -d 2 -p cbr -e 210 -c 2 -i 104 -a 2 -x {1.0 3.1 100 ------- null}
+ -t 0.478749999999999 -s 1 -d 2 -p cbr -e 210 -c 2 -i 105 -a 2 -x {1.0 3.1 101 ------- null}
d -t 0.478749999999999 -s 1 -d 2 -p cbr -e 210 -c 2 -i 105 -a 2 -x {1.0 3.1 101 ------- null}
+ -t 0.482499999999999 -s 1 -d 2 -p cbr -e 210 -c 2 -i 106 -a 2 -x {1.0 3.1 102 ------- null}
d -t 0.482499999999999 -s 1 -d 2 -p cbr -e 210 -c 2 -i 106 -a 2 -x {1.0 3.1 102 ------- null}
+ -t 0.486249999999999 -s 1 -d 2 -p cbr -e 210 -c 2 -i 107 -a 2 -x {1.0 3.1 103 ------- null}
d -t 0.486249999999999 -s 1 -d 2 -p cbr -e 210 -c 2 -i 107 -a 2 -x {1.0 3.1 103 ------- null}
+ -t 0.489999999999999 -s 1 -d 2 -p cbr -e 210 -c 2 -i 108 -a 2 -x {1.0 3.1 104 ------- null}
d -t 0.489999999999999 -s 1 -d 2 -p cbr -e 210 -c 2 -i 108 -a 2 -x {1.0 3.1 104 ------- null}
+ -t 0.493749999999999 -s 1 -d 2 -p cbr -e 210 -c 2 -i 109 -a 2 -x {1.0 3.1 105 ------- null}
d -t 0.493749999999999 -s 1 -d 2 -p cbr -e 210 -c 2 -i 109 -a 2 -x {1.0 3.1 105 ------- null}
+ -t 0.497499999999998 -s 1 -d 2 -p cbr -e 210 -c 2 -i 110 -a 2 -x {1.0 3.1 106 ------- null}
d -t 0.497499999999998 -s 1 -d 2 -p cbr -e 210 -c 2 -i 110 -a 2 -x {1.0 3.1 106 ------- null}
+ -t 0.501249999999999 -s 1 -d 2 -p cbr -e 210 -c 2 -i 111 -a 2 -x {1.0 3.1 107 ------- null}
d -t 0.501249999999999 -s 1 -d 2 -p cbr -e 210 -c 2 -i 111 -a 2 -x {1.0 3.1 107 ------- null}
+ -t 0.504999999999999 -s 1 -d 2 -p cbr -e 210 -c 2 -i 112 -a 2 -x {1.0 3.1 108 ------- null}
d -t 0.504999999999999 -s 1 -d 2 -p cbr -e 210 -c 2 -i 112 -a 2 -x {1.0 3.1 108 ------- null}
+ -t 0.508749999999999 -s 1 -d 2 -p cbr -e 210 -c 2 -i 113 -a 2 -x {1.0 3.1 109 ------- null}
d -t 0.508749999999999 -s 1 -d 2 -p cbr -e 210 -c 2 -i 113 -a 2 -x {1.0 3.1 109 ------- null}
+ -t 0.512499999999999 -s 1 -d 2 -p cbr -e 210 -c 2 -i 114 -a 2 -x {1.0 3.1 110 ------- null}
d -t 0.512499999999999 -s 1 -d 2 -p cbr -e 210 -c 2 -i 114 -a 2 -x {1.0 3.1 110 ------- null}
+ -t 0.516249999999999 -s 1 -d 2 -p cbr -e 210 -c 2 -i 115 -a 2 -x {1.0 3.1 111 ------- null}
d -t 0.516249999999999 -s 1 -d 2 -p cbr -e 210 -c 2 -i 115 -a 2 -x {1.0 3.1 111 ------- null}
+ -t 0.519999999999999 -s 1 -d 2 -p cbr -e 210 -c 2 -i 116 -a 2 -x {1.0 3.1 112 ------- null}
d -t 0.519999999999999 -s 1 -d 2 -p cbr -e 210 -c 2 -i 116 -a 2 -x {1.0 3.1 112 ------- null}
+ -t 0.523749999999999 -s 1 -d 2 -p cbr -e 210 -c 2 -i 117 -a 2 -x {1.0 3.1 113 ------- null}
d -t 0.523749999999999 -s 1 -d 2 -p cbr -e 210 -c 2 -i 117 -a 2 -x {1.0 3.1 113 ------- null}
+ -t 0.527499999999999 -s 1 -d 2 -p cbr -e 210 -c 2 -i 118 -a 2 -x {1.0 3.1 114 ------- null}
d -t 0.527499999999999 -s 1 -d 2 -p cbr -e 210 -c 2 -i 118 -a 2 -x {1.0 3.1 114 ------- null}
+ -t 0.531249999999999 -s 1 -d 2 -p cbr -e 210 -c 2 -i 119 -a 2 -x {1.0 3.1 115 ------- null}
d -t 0.531249999999999 -s 1 -d 2 -p cbr -e 210 -c 2 -i 119 -a 2 -x {1.0 3.1 115 ------- null}
+ -t 0.534999999999999 -s 1 -d 2 -p cbr -e 210 -c 2 -i 120 -a 2 -x {1.0 3.1 116 ------- null}
d -t 0.534999999999999 -s 1 -d 2 -p cbr -e 210 -c 2 -i 120 -a 2 -x {1.0 3.1 116 ------- null}
r -t 0.536 -s 1 -d 2 -p cbr -e 210 -c 2 -i 1 -a 2 -x {1.0 3.1 1 ------- null}
+ -t 0.536 -s 2 -d 3 -p cbr -e 210 -c 2 -i 1 -a 2 -x {1.0 3.1 1 ------- null}
- -t 0.536 -s 2 -d 3 -p tcp -e 1040 -c 1 -i 84 -a 1 -x {0.0 3.0 1 ------- null}
h -t 0.536 -s 2 -d 3 -p tcp -e 1040 -c 1 -i 84 -a 1 -x {0.0 3.0 -1 ------- null}
+ -t 0.538749999999999 -s 1 -d 2 -p cbr -e 210 -c 2 -i 121 -a 2 -x {1.0 3.1 117 ------- null}
d -t 0.538749999999999 -s 1 -d 2 -p cbr -e 210 -c 2 -i 121 -a 2 -x {1.0 3.1 117 ------- null}
+ -t 0.542499999999999 -s 1 -d 2 -p cbr -e 210 -c 2 -i 122 -a 2 -x {1.0 3.1 118 ------- null}
d -t 0.542499999999999 -s 1 -d 2 -p cbr -e 210 -c 2 -i 122 -a 2 -x {1.0 3.1 118 ------- null}
r -t 0.546 -s 2 -d 3 -p cbr -e 210 -c 2 -i 0 -a 2 -x {1.0 3.1 0 ------- null}
+ -t 0.546249999999999 -s 1 -d 2 -p cbr -e 210 -c 2 -i 123 -a 2 -x {1.0 3.1 119 ------- null}
d -t 0.546249999999999 -s 1 -d 2 -p cbr -e 210 -c 2 -i 123 -a 2 -x {1.0 3.1 119 ------- null}
+ -t 0.549999999999999 -s 1 -d 2 -p cbr -e 210 -c 2 -i 124 -a 2 -x {1.0 3.1 120 ------- null}
d -t 0.549999999999999 -s 1 -d 2 -p cbr -e 210 -c 2 -i 124 -a 2 -x {1.0 3.1 120 ------- null}
+ -t 0.553749999999999 -s 1 -d 2 -p cbr -e 210 -c 2 -i 125 -a 2 -x {1.0 3.1 121 ------- null}
d -t 0.553749999999999 -s 1 -d 2 -p cbr -e 210 -c 2 -i 125 -a 2 -x {1.0 3.1 121 ------- null}
+ -t 0.557499999999999 -s 1 -d 2 -p cbr -e 210 -c 2 -i 126 -a 2 -x {1.0 3.1 122 ------- null}
d -t 0.557499999999999 -s 1 -d 2 -p cbr -e 210 -c 2 -i 126 -a 2 -x {1.0 3.1 122 ------- null}
+ -t 0.561249999999999 -s 1 -d 2 -p cbr -e 210 -c 2 -i 127 -a 2 -x {1.0 3.1 123 ------- null}
d -t 0.561249999999999 -s 1 -d 2 -p cbr -e 210 -c 2 -i 127 -a 2 -x {1.0 3.1 123 ------- null}
+ -t 0.564999999999999 -s 1 -d 2 -p cbr -e 210 -c 2 -i 128 -a 2 -x {1.0 3.1 124 ------- null}
d -t 0.564999999999999 -s 1 -d 2 -p cbr -e 210 -c 2 -i 128 -a 2 -x {1.0 3.1 124 ------- null}
+ -t 0.568749999999999 -s 1 -d 2 -p cbr -e 210 -c 2 -i 129 -a 2 -x {1.0 3.1 125 ------- null}
d -t 0.568749999999999 -s 1 -d 2 -p cbr -e 210 -c 2 -i 129 -a 2 -x {1.0 3.1 125 ------- null}
+ -t 0.572499999999999 -s 1 -d 2 -p cbr -e 210 -c 2 -i 130 -a 2 -x {1.0 3.1 126 ------- null}
d -t 0.572499999999999 -s 1 -d 2 -p cbr -e 210 -c 2 -i 130 -a 2 -x {1.0 3.1 126 ------- null}
+ -t 0.576249999999999 -s 1 -d 2 -p cbr -e 210 -c 2 -i 131 -a 2 -x {1.0 3.1 127 ------- null}
d -t 0.576249999999999 -s 1 -d 2 -p cbr -e 210 -c 2 -i 131 -a 2 -x {1.0 3.1 127 ------- null}
+ -t 0.579999999999999 -s 1 -d 2 -p cbr -e 210 -c 2 -i 132 -a 2 -x {1.0 3.1 128 ------- null}
d -t 0.579999999999999 -s 1 -d 2 -p cbr -e 210 -c 2 -i 132 -a 2 -x {1.0 3.1 128 ------- null}
+ -t 0.583749999999999 -s 1 -d 2 -p cbr -e 210 -c 2 -i 133 -a 2 -x {1.0 3.1 129 ------- null}
d -t 0.583749999999999 -s 1 -d 2 -p cbr -e 210 -c 2 -i 133 -a 2 -x {1.0 3.1 129 ------- null}
+ -t 0.587499999999999 -s 1 -d 2 -p cbr -e 210 -c 2 -i 134 -a 2 -x {1.0 3.1 130 ------- null}
d -t 0.587499999999999 -s 1 -d 2 -p cbr -e 210 -c 2 -i 134 -a 2 -x {1.0 3.1 130 ------- null}
+ -t 0.591249999999999 -s 1 -d 2 -p cbr -e 210 -c 2 -i 135 -a 2 -x {1.0 3.1 131 ------- null}
d -t 0.591249999999999 -s 1 -d 2 -p cbr -e 210 -c 2 -i 135 -a 2 -x {1.0 3.1 131 ------- null}
+ -t 0.594999999999999 -s 1 -d 2 -p cbr -e 210 -c 2 -i 136 -a 2 -x {1.0 3.1 132 ------- null}
d -t 0.594999999999999 -s 1 -d 2 -p cbr -e 210 -c 2 -i 136 -a 2 -x {1.0 3.1 132 ------- null}
+ -t 0.598749999999999 -s 1 -d 2 -p cbr -e 210 -c 2 -i 137 -a 2 -x {1.0 3.1 133 ------- null}
d -t 0.598749999999999 -s 1 -d 2 -p cbr -e 210 -c 2 -i 137 -a 2 -x {1.0 3.1 133 ------- null}
+ -t 0.602499999999999 -s 1 -d 2 -p cbr -e 210 -c 2 -i 138 -a 2 -x {1.0 3.1 134 ------- null}
d -t 0.602499999999999 -s 1 -d 2 -p cbr -e 210 -c 2 -i 138 -a 2 -x {1.0 3.1 134 ------- null}
- -t 0.604 -s 1 -d 2 -p cbr -e 210 -c 2 -i 3 -a 2 -x {1.0 3.1 3 ------- null}
h -t 0.604 -s 1 -d 2 -p cbr -e 210 -c 2 -i 3 -a 2 -x {1.0 3.1 -1 ------- null}
+ -t 0.606249999999999 -s 1 -d 2 -p cbr -e 210 -c 2 -i 139 -a 2 -x {1.0 3.1 135 ------- null}
+ -t 0.609999999999999 -s 1 -d 2 -p cbr -e 210 -c 2 -i 140 -a 2 -x {1.0 3.1 136 ------- null}
d -t 0.609999999999999 -s 1 -d 2 -p cbr -e 210 -c 2 -i 140 -a 2 -x {1.0 3.1 136 ------- null}
+ -t 0.613749999999999 -s 1 -d 2 -p cbr -e 210 -c 2 -i 141 -a 2 -x {1.0 3.1 137 ------- null}
d -t 0.613749999999999 -s 1 -d 2 -p cbr -e 210 -c 2 -i 141 -a 2 -x {1.0 3.1 137 ------- null}
+ -t 0.617499999999999 -s 1 -d 2 -p cbr -e 210 -c 2 -i 142 -a 2 -x {1.0 3.1 138 ------- null}
d -t 0.617499999999999 -s 1 -d 2 -p cbr -e 210 -c 2 -i 142 -a 2 -x {1.0 3.1 138 ------- null}
+ -t 0.62125 -s 1 -d 2 -p cbr -e 210 -c 2 -i 143 -a 2 -x {1.0 3.1 139 ------- null}
d -t 0.62125 -s 1 -d 2 -p cbr -e 210 -c 2 -i 143 -a 2 -x {1.0 3.1 139 ------- null}
+ -t 0.625 -s 1 -d 2 -p cbr -e 210 -c 2 -i 144 -a 2 -x {1.0 3.1 140 ------- null}
d -t 0.625 -s 1 -d 2 -p cbr -e 210 -c 2 -i 144 -a 2 -x {1.0 3.1 140 ------- null}
+ -t 0.62875 -s 1 -d 2 -p cbr -e 210 -c 2 -i 145 -a 2 -x {1.0 3.1 141 ------- null}
d -t 0.62875 -s 1 -d 2 -p cbr -e 210 -c 2 -i 145 -a 2 -x {1.0 3.1 141 ------- null}
+ -t 0.6325 -s 1 -d 2 -p cbr -e 210 -c 2 -i 146 -a 2 -x {1.0 3.1 142 ------- null}
d -t 0.6325 -s 1 -d 2 -p cbr -e 210 -c 2 -i 146 -a 2 -x {1.0 3.1 142 ------- null}
+ -t 0.63625 -s 1 -d 2 -p cbr -e 210 -c 2 -i 147 -a 2 -x {1.0 3.1 143 ------- null}
d -t 0.63625 -s 1 -d 2 -p cbr -e 210 -c 2 -i 147 -a 2 -x {1.0 3.1 143 ------- null}
+ -t 0.64 -s 1 -d 2 -p cbr -e 210 -c 2 -i 148 -a 2 -x {1.0 3.1 144 ------- null}
d -t 0.64 -s 1 -d 2 -p cbr -e 210 -c 2 -i 148 -a 2 -x {1.0 3.1 144 ------- null}
+ -t 0.64375 -s 1 -d 2 -p cbr -e 210 -c 2 -i 149 -a 2 -x {1.0 3.1 145 ------- null}
d -t 0.64375 -s 1 -d 2 -p cbr -e 210 -c 2 -i 149 -a 2 -x {1.0 3.1 145 ------- null}
+ -t 0.6475 -s 1 -d 2 -p cbr -e 210 -c 2 -i 150 -a 2 -x {1.0 3.1 146 ------- null}
d -t 0.6475 -s 1 -d 2 -p cbr -e 210 -c 2 -i 150 -a 2 -x {1.0 3.1 146 ------- null}
+ -t 0.65125 -s 1 -d 2 -p cbr -e 210 -c 2 -i 151 -a 2 -x {1.0 3.1 147 ------- null}
d -t 0.65125 -s 1 -d 2 -p cbr -e 210 -c 2 -i 151 -a 2 -x {1.0 3.1 147 ------- null}
+ -t 0.655 -s 1 -d 2 -p cbr -e 210 -c 2 -i 152 -a 2 -x {1.0 3.1 148 ------- null}
d -t 0.655 -s 1 -d 2 -p cbr -e 210 -c 2 -i 152 -a 2 -x {1.0 3.1 148 ------- null}
+ -t 0.65875 -s 1 -d 2 -p cbr -e 210 -c 2 -i 153 -a 2 -x {1.0 3.1 149 ------- null}
d -t 0.65875 -s 1 -d 2 -p cbr -e 210 -c 2 -i 153 -a 2 -x {1.0 3.1 149 ------- null}
+ -t 0.6625 -s 1 -d 2 -p cbr -e 210 -c 2 -i 154 -a 2 -x {1.0 3.1 150 ------- null}
d -t 0.6625 -s 1 -d 2 -p cbr -e 210 -c 2 -i 154 -a 2 -x {1.0 3.1 150 ------- null}
+ -t 0.66625 -s 1 -d 2 -p cbr -e 210 -c 2 -i 155 -a 2 -x {1.0 3.1 151 ------- null}
d -t 0.66625 -s 1 -d 2 -p cbr -e 210 -c 2 -i 155 -a 2 -x {1.0 3.1 151 ------- null}
+ -t 0.67 -s 1 -d 2 -p cbr -e 210 -c 2 -i 156 -a 2 -x {1.0 3.1 152 ------- null}
d -t 0.67 -s 1 -d 2 -p cbr -e 210 -c 2 -i 156 -a 2 -x {1.0 3.1 152 ------- null}
+ -t 0.67375 -s 1 -d 2 -p cbr -e 210 -c 2 -i 157 -a 2 -x {1.0 3.1 153 ------- null}
d -t 0.67375 -s 1 -d 2 -p cbr -e 210 -c 2 -i 157 -a 2 -x {1.0 3.1 153 ------- null}
+ -t 0.6775 -s 1 -d 2 -p cbr -e 210 -c 2 -i 158 -a 2 -x {1.0 3.1 154 ------- null}
d -t 0.6775 -s 1 -d 2 -p cbr -e 210 -c 2 -i 158 -a 2 -x {1.0 3.1 154 ------- null}
+ -t 0.68125 -s 1 -d 2 -p cbr -e 210 -c 2 -i 159 -a 2 -x {1.0 3.1 155 ------- null}
d -t 0.68125 -s 1 -d 2 -p cbr -e 210 -c 2 -i 159 -a 2 -x {1.0 3.1 155 ------- null}
+ -t 0.685 -s 1 -d 2 -p cbr -e 210 -c 2 -i 160 -a 2 -x {1.0 3.1 156 ------- null}
d -t 0.685 -s 1 -d 2 -p cbr -e 210 -c 2 -i 160 -a 2 -x {1.0 3.1 156 ------- null}
+ -t 0.68875 -s 1 -d 2 -p cbr -e 210 -c 2 -i 161 -a 2 -x {1.0 3.1 157 ------- null}
d -t 0.68875 -s 1 -d 2 -p cbr -e 210 -c 2 -i 161 -a 2 -x {1.0 3.1 157 ------- null}
+ -t 0.6925 -s 1 -d 2 -p cbr -e 210 -c 2 -i 162 -a 2 -x {1.0 3.1 158 ------- null}
d -t 0.6925 -s 1 -d 2 -p cbr -e 210 -c 2 -i 162 -a 2 -x {1.0 3.1 158 ------- null}
+ -t 0.69625 -s 1 -d 2 -p cbr -e 210 -c 2 -i 163 -a 2 -x {1.0 3.1 159 ------- null}
d -t 0.69625 -s 1 -d 2 -p cbr -e 210 -c 2 -i 163 -a 2 -x {1.0 3.1 159 ------- null}
+ -t 0.7 -s 1 -d 2 -p cbr -e 210 -c 2 -i 164 -a 2 -x {1.0 3.1 160 ------- null}
d -t 0.7 -s 1 -d 2 -p cbr -e 210 -c 2 -i 164 -a 2 -x {1.0 3.1 160 ------- null}
+ -t 0.70375 -s 1 -d 2 -p cbr -e 210 -c 2 -i 165 -a 2 -x {1.0 3.1 161 ------- null}
d -t 0.70375 -s 1 -d 2 -p cbr -e 210 -c 2 -i 165 -a 2 -x {1.0 3.1 161 ------- null}
r -t 0.704 -s 1 -d 2 -p cbr -e 210 -c 2 -i 2 -a 2 -x {1.0 3.1 2 ------- null}
+ -t 0.704 -s 2 -d 3 -p cbr -e 210 -c 2 -i 2 -a 2 -x {1.0 3.1 2 ------- null}
+ -t 0.704064 -s 0 -d 2 -p tcp -e 1040 -c 1 -i 166 -a 1 -x {0.0 3.0 1 ---A--- null}
- -t 0.704064 -s 0 -d 2 -p tcp -e 1040 -c 1 -i 166 -a 1 -x {0.0 3.0 1 ---A--- null}
h -t 0.704064 -s 0 -d 2 -p tcp -e 1040 -c 1 -i 166 -a 1 -x {0.0 3.0 -1 ---A--- null}
+ -t 0.7075 -s 1 -d 2 -p cbr -e 210 -c 2 -i 167 -a 2 -x {1.0 3.1 162 ------- null}
d -t 0.7075 -s 1 -d 2 -p cbr -e 210 -c 2 -i 167 -a 2 -x {1.0 3.1 162 ------- null}
+ -t 0.71125 -s 1 -d 2 -p cbr -e 210 -c 2 -i 168 -a 2 -x {1.0 3.1 163 ------- null}
d -t 0.71125 -s 1 -d 2 -p cbr -e 210 -c 2 -i 168 -a 2 -x {1.0 3.1 163 ------- null}
r -t 0.714896 -s 0 -d 2 -p tcp -e 1040 -c 1 -i 166 -a 1 -x {0.0 3.0 1 ---A--- null}
+ -t 0.714896 -s 2 -d 3 -p tcp -e 1040 -c 1 -i 166 -a 1 -x {0.0 3.0 1 ---A--- null}
+ -t 0.715 -s 1 -d 2 -p cbr -e 210 -c 2 -i 169 -a 2 -x {1.0 3.1 164 ------- null}
d -t 0.715 -s 1 -d 2 -p cbr -e 210 -c 2 -i 169 -a 2 -x {1.0 3.1 164 ------- null}
+ -t 0.71875 -s 1 -d 2 -p cbr -e 210 -c 2 -i 170 -a 2 -x {1.0 3.1 165 ------- null}
d -t 0.71875 -s 1 -d 2 -p cbr -e 210 -c 2 -i 170 -a 2 -x {1.0 3.1 165 ------- null}
+ -t 0.7225 -s 1 -d 2 -p cbr -e 210 -c 2 -i 171 -a 2 -x {1.0 3.1 166 ------- null}
d -t 0.7225 -s 1 -d 2 -p cbr -e 210 -c 2 -i 171 -a 2 -x {1.0 3.1 166 ------- null}
+ -t 0.72625 -s 1 -d 2 -p cbr -e 210 -c 2 -i 172 -a 2 -x {1.0 3.1 167 ------- null}
d -t 0.72625 -s 1 -d 2 -p cbr -e 210 -c 2 -i 172 -a 2 -x {1.0 3.1 167 ------- null}
+ -t 0.73 -s 1 -d 2 -p cbr -e 210 -c 2 -i 173 -a 2 -x {1.0 3.1 168 ------- null}
d -t 0.73 -s 1 -d 2 -p cbr -e 210 -c 2 -i 173 -a 2 -x {1.0 3.1 168 ------- null}
+ -t 0.73375 -s 1 -d 2 -p cbr -e 210 -c 2 -i 174 -a 2 -x {1.0 3.1 169 ------- null}
d -t 0.73375 -s 1 -d 2 -p cbr -e 210 -c 2 -i 174 -a 2 -x {1.0 3.1 169 ------- null}
+ -t 0.7375 -s 1 -d 2 -p cbr -e 210 -c 2 -i 175 -a 2 -x {1.0 3.1 170 ------- null}
d -t 0.7375 -s 1 -d 2 -p cbr -e 210 -c 2 -i 175 -a 2 -x {1.0 3.1 170 ------- null}