+ 0.1 1 2 cbr 210 ------- 2 1.0 3.1 0 0
- 0.1 1 2 cbr 210 ------- 2 1.0 3.1 0 0
+ 0.10375 1 2 cbr 210 ------- 2 1.0 3.1 1 1
+ 0.1075 1 2 cbr 210 ------- 2 1.0 3.1 2 2
+ 0.11125 1 2 cbr 210 ------- 2 1.0 3.1 3 3
+ 0.115 1 2 cbr 210 ------- 2 1.0 3.1 4 4
+ 0.11875 1 2 cbr 210 ------- 2 1.0 3.1 5 5
+ 0.1225 1 2 cbr 210 ------- 2 1.0 3.1 6 6
+ 0.12625 1 2 cbr 210 ------- 2 1.0 3.1 7 7
+ 0.13 1 2 cbr 210 ------- 2 1.0 3.1 8 8
+ 0.13375 1 2 cbr 210 ------- 2 1.0 3.1 9 9
+ 0.1375 1 2 cbr 210 ------- 2 1.0 3.1 10 10
+ 0.14125 1 2 cbr 210 ------- 2 1.0 3.1 11 11
+ 0.145 1 2 cbr 210 ------- 2 1.0 3.1 12 12
+ 0.14875 1 2 cbr 210 ------- 2 1.0 3.1 13 13
+ 0.1525 1 2 cbr 210 ------- 2 1.0 3.1 14 14
+ 0.15625 1 2 cbr 210 ------- 2 1.0 3.1 15 15
+ 0.16 1 2 cbr 210 ------- 2 1.0 3.1 16 16
+ 0.16375 1 2 cbr 210 ------- 2 1.0 3.1 17 17
+ 0.1675 1 2 cbr 210 ------- 2 1.0 3.1 18 18
+ 0.17125 1 2 cbr 210 ------- 2 1.0 3.1 19 19
+ 0.175 1 2 cbr 210 ------- 2 1.0 3.1 20 20
+ 0.17875 1 2 cbr 210 ------- 2 1.0 3.1 21 21
+ 0.1825 1 2 cbr 210 ------- 2 1.0 3.1 22 22
+ 0.18625 1 2 cbr 210 ------- 2 1.0 3.1 23 23
+ 0.19 1 2 cbr 210 ------- 2 1.0 3.1 24 24
+ 0.19375 1 2 cbr 210 ------- 2 1.0 3.1 25 25
+ 0.1975 1 2 cbr 210 ------- 2 1.0 3.1 26 26
+ 0.20125 1 2 cbr 210 ------- 2 1.0 3.1 27 27
+ 0.205 1 2 cbr 210 ------- 2 1.0 3.1 28 28
+ 0.20875 1 2 cbr 210 ------- 2 1.0 3.1 29 29
+ 0.2125 1 2 cbr 210 ------- 2 1.0 3.1 30 30
+ 0.21625 1 2 cbr 210 ------- 2 1.0 3.1 31 31
+ 0.22 1 2 cbr 210 ------- 2 1.0 3.1 32 32
+ 0.22375 1 2 cbr 210 ------- 2 1.0 3.1 33 33
+ 0.2275 1 2 cbr 210 ------- 2 1.0 3.1 34 34
+ 0.23125 1 2 cbr 210 ------- 2 1.0 3.1 35 35
+ 0.235 1 2 cbr 210 ------- 2 1.0 3.1 36 36
+ 0.23875 1 2 cbr 210 ------- 2 1.0 3.1 37 37
+ 0.2425 1 2 cbr 210 ------- 2 1.0 3.1 38 38
+ 0.24625 1 2 cbr 210 ------- 2 1.0 3.1 39 39
+ 0.25 1 2 cbr 210 ------- 2 1.0 3.1 40 40
+ 0.25375 1 2 cbr 210 ------- 2 1.0 3.1 41 41
+ 0.2575 1 2 cbr 210 ------- 2 1.0 3.1 42 42
+ 0.26125 1 2 cbr 210 ------- 2 1.0 3.1 43 43
+ 0.265 1 2 cbr 210 ------- 2 1.0 3.1 44 44
- 0.268 1 2 cbr 210 ------- 2 1.0 3.1 1 1
+ 0.26875 1 2 cbr 210 ------- 2 1.0 3.1 45 45
+ 0.2725 1 2 cbr 210 ------- 2 1.0 3.1 46 46
+ 0.27625 1 2 cbr 210 ------- 2 1.0 3.1 47 47
+ 0.28 1 2 cbr 210 ------- 2 1.0 3.1 48 48
+ 0.28375 1 2 cbr 210 ------- 2 1.0 3.1 49 49
+ 0.2875 1 2 cbr 210 ------- 2 1.0 3.1 50 50
+ 0.29125 1 2 cbr 210 ------- 2 1.0 3.1 51 51
d 0.29125 1 2 cbr 210 ------- 2 1.0 3.1 51 51
+ 0.295 1 2 cbr 210 ------- 2 1.0 3.1 52 52
d 0.295 1 2 cbr 210 ------- 2 1.0 3.1 52 52
+ 0.29875 1 2 cbr 210 ------- 2 1.0 3.1 53 53
d 0.29875 1 2 cbr 210 ------- 2 1.0 3.1 53 53
+ 0.3 0 2 tcp 40 ------- 1 0.0 3.0 0 54
- 0.3 0 2 tcp 40 ------- 1 0.0 3.0 0 54
+ 0.3025 1 2 cbr 210 ------- 2 1.0 3.1 54 55
d 0.3025 1 2 cbr 210 ------- 2 1.0 3.1 54 55
+ 0.30625 1 2 cbr 210 ------- 2 1.0 3.1 55 56
d 0.30625 1 2 cbr 210 ------- 2 1.0 3.1 55 56
+ 0.31 1 2 cbr 210 ------- 2 1.0 3.1 56 57
d 0.31 1 2 cbr 210 ------- 2 1.0 3.1 56 57
r 0.310032 0 2 tcp 40 ------- 1 0.0 3.0 0 54
+ 0.310032 2 3 tcp 40 ------- 1 0.0 3.0 0 54
- 0.310032 2 3 tcp 40 ------- 1 0.0 3.0 0 54
+ 0.31375 1 2 cbr 210 ------- 2 1.0 3.1 57 58
d 0.31375 1 2 cbr 210 ------- 2 1.0 3.1 57 58
+ 0.3175 1 2 cbr 210 ------- 2 1.0 3.1 58 59
d 0.3175 1 2 cbr 210 ------- 2 1.0 3.1 58 59
+ 0.32125 1 2 cbr 210 ------- 2 1.0 3.1 59 60
d 0.32125 1 2 cbr 210 ------- 2 1.0 3.1 59 60
+ 0.325 1 2 cbr 210 ------- 2 1.0 3.1 60 61
d 0.325 1 2 cbr 210 ------- 2 1.0 3.1 60 61
+ 0.32875 1 2 cbr 210 ------- 2 1.0 3.1 61 62
d 0.32875 1 2 cbr 210 ------- 2 1.0 3.1 61 62
+ 0.3325 1 2 cbr 210 ------- 2 1.0 3.1 62 63
d 0.3325 1 2 cbr 210 ------- 2 1.0 3.1 62 63
+ 0.33625 1 2 cbr 210 ------- 2 1.0 3.1 63 64
d 0.33625 1 2 cbr 210 ------- 2 1.0 3.1 63 64
+ 0.34 1 2 cbr 210 ------- 2 1.0 3.1 64 65
d 0.34 1 2 cbr 210 ------- 2 1.0 3.1 64 65
+ 0.34375 1 2 cbr 210 ------- 2 1.0 3.1 65 66
d 0.34375 1 2 cbr 210 ------- 2 1.0 3.1 65 66
+ 0.3475 1 2 cbr 210 ------- 2 1.0 3.1 66 67
d 0.3475 1 2 cbr 210 ------- 2 1.0 3.1 66 67
+ 0.35125 1 2 cbr 210 ------- 2 1.0 3.1 67 68
d 0.35125 1 2 cbr 210 ------- 2 1.0 3.1 67 68
r 0.352032 2 3 tcp 40 ------- 1 0.0 3.0 0 54
+ 0.352032 3 2 ack 40 ------- 1 3.0 0.0 0 69
- 0.352032 3 2 ack 40 ------- 1 3.0 0.0 0 69
+ 0.355 1 2 cbr 210 ------- 2 1.0 3.1 68 70
d 0.355 1 2 cbr 210 ------- 2 1.0 3.1 68 70
+ 0.35875 1 2 cbr 210 ------- 2 1.0 3.1 69 71
d 0.35875 1 2 cbr 210 ------- 2 1.0 3.1 69 71
+ 0.3625 1 2 cbr 210 ------- 2 1.0 3.1 70 72
d 0.3625 1 2 cbr 210 ------- 2 1.0 3.1 70 72
+ 0.36625 1 2 cbr 210 ------- 2 1.0 3.1 71 73
d 0.36625 1 2 cbr 210 ------- 2 1.0 3.1 71 73
r 0.368 1 2 cbr 210 ------- 2 1.0 3.1 0 0
+ 0.368 2 3 cbr 210 ------- 2 1.0 3.1 0 0
- 0.368 2 3 cbr 210 ------- 2 1.0 3.1 0 0
+ 0.37 1 2 cbr 210 ------- 2 1.0 3.1 72 74
d 0.37 1 2 cbr 210 ------- 2 1.0 3.1 72 74
+ 0.37375 1 2 cbr 210 ------- 2 1.0 3.1 73 75
d 0.37375 1 2 cbr 210 ------- 2 1.0 3.1 73 75
+ 0.3775 1 2 cbr 210 ------- 2 1.0 3.1 74 76
d 0.3775 1 2 cbr 210 ------- 2 1.0 3.1 74 76
+ 0.38125 1 2 cbr 210 ------- 2 1.0 3.1 75 77
d 0.38125 1 2 cbr 210 ------- 2 1.0 3.1 75 77
+ 0.385 1 2 cbr 210 ------- 2 1.0 3.1 76 78
d 0.385 1 2 cbr 210 ------- 2 1.0 3.1 76 78
+ 0.38875 1 2 cbr 210 ------- 2 1.0 3.1 77 79
d 0.38875 1 2 cbr 210 ------- 2 1.0 3.1 77 79
+ 0.3925 1 2 cbr 210 ------- 2 1.0 3.1 78 80
d 0.3925 1 2 cbr 210 ------- 2 1.0 3.1 78 80
r 0.394032 3 2 ack 40 ------- 1 3.0 0.0 0 69
+ 0.394032 2 0 ack 40 ------- 1 3.0 0.0 0 69
- 0.394032 2 0 ack 40 ------- 1 3.0 0.0 0 69
+ 0.39625 1 2 cbr 210 ------- 2 1.0 3.1 79 81
d 0.39625 1 2 cbr 210 ------- 2 1.0 3.1 79 81
+ 0.4 1 2 cbr 210 ------- 2 1.0 3.1 80 82
d 0.4 1 2 cbr 210 ------- 2 1.0 3.1 80 82
+ 0.40375 1 2 cbr 210 ------- 2 1.0 3.1 81 83
d 0.40375 1 2 cbr 210 ------- 2 1.0 3.1 81 83
r 0.404064 2 0 ack 40 ------- 1 3.0 0.0 0 69
+ 0.404064 0 2 tcp 1040 ------- 1 0.0 3.0 1 84
- 0.404064 0 2 tcp 1040 ------- 1 0.0 3.0 1 84
+ 0.404064 0 2 tcp 1040 ------- 1 0.0 3.0 2 85
- 0.404896 0 2 tcp 1040 ------- 1 0.0 3.0 2 85
+ 0.4075 1 2 cbr 210 ------- 2 1.0 3.1 82 86
d 0.4075 1 2 cbr 210 ------- 2 1.0 3.1 82 86
+ 0.41125 1 2 cbr 210 ------- 2 1.0 3.1 83 87
d 0.41125 1 2 cbr 210 ------- 2 1.0 3.1 83 87
r 0.414896 0 2 tcp 1040 ------- 1 0.0 3.0 1 84
+ 0.414896 2 3 tcp 1040 ------- 1 0.0 3.0 1 84
+ 0.415 1 2 cbr 210 ------- 2 1.0 3.1 84 88
d 0.415 1 2 cbr 210 ------- 2 1.0 3.1 84 88
r 0.415728 0 2 tcp 1040 ------- 1 0.0 3.0 2 85
+ 0.415728 2 3 tcp 1040 ------- 1 0.0 3.0 2 85
+ 0.41875 1 2 cbr 210 ------- 2 1.0 3.1 85 89
d 0.41875 1 2 cbr 210 ------- 2 1.0 3.1 85 89
+ 0.4225 1 2 cbr 210 ------- 2 1.0 3.1 86 90
d 0.4225 1 2 cbr 210 ------- 2 1.0 3.1 86 90
+ 0.42625 1 2 cbr 210 ------- 2 1.0 3.1 87 91
d 0.42625 1 2 cbr 210 ------- 2 1.0 3.1 87 91
+ 0.43 1 2 cbr 210 ------- 2 1.0 3.1 88 92
d 0.43 1 2 cbr 210 ------- 2 1.0 3.1 88 92
+ 0.43375 1 2 cbr 210 ------- 2 1.0 3.1 89 93
d 0.43375 1 2 cbr 210 ------- 2 1.0 3.1 89 93
- 0.436 1 2 cbr 210 ------- 2 1.0 3.1 2 2
+ 0.4375 1 2 cbr 210 ------- 2 1.0 3.1 90 94
+ 0.44125 1 2 cbr 210 ------- 2 1.0 3.1 91 95
d 0.44125 1 2 cbr 210 ------- 2 1.0 3.1 91 95
+ 0.445 1 2 cbr 210 ------- 2 1.0 3.1 92 96
d 0.445 1 2 cbr 210 ------- 2 1.0 3.1 92 96
+ 0.44875 1 2 cbr 210 ------- 2 1.0 3.1 93 97
d 0.44875 1 2 cbr 210 ------- 2 1.0 3.1 93 97
+ 0.4525 1 2 cbr 210 ------- 2 1.0 3.1 94 98
d 0.4525 1 2 cbr 210 ------- 2 1.0 3.1 94 98
+ 0.45625 1 2 cbr 210 ------- 2 1.0 3.1 95 99
d 0.45625 1 2 cbr 210 ------- 2 1.0 3.1 95 99
+ 0.46 1 2 cbr 210 ------- 2 1.0 3.1 96 100
d 0.46 1 2 cbr 210 ------- 2 1.0 3.1 96 100
+ 0.46375 1 2 cbr 210 ------- 2 1.0 3.1 97 101
d 0.46375 1 2 cbr 210 ------- 2 1.0 3.1 97 101
+ 0.4675 1 2 cbr 210 ------- 2 1.0 3.1 98 102
d 0.4675 1 2 cbr 210 ------- 2 1.0 3.1 98 102
+ 0.47125 1 2 cbr 210 ------- 2 1.0 3.1 99 103
d 0.47125 1 2 cbr 210 ------- 2 1.0 3.1 99 103
+ 0.475 1 2 cbr 210 ------- 2 1.0 3.1 100 104
d 0.475 1 2 cbr 210 ------- 2 1.0 3.1 100 104
+ 0.47875 1 2 cbr 210 ------- 2 1.0 3.1 101 105
d 0.47875 1 2 cbr 210 ------- 2 1.0 3.1 101 105
+ 0.4825 1 2 cbr 210 ------- 2 1.0 3.1 102 106
d 0.4825 1 2 cbr 210 ------- 2 1.0 3.1 102 106
+ 0.48625 1 2 cbr 210 ------- 2 1.0 3.1 103 107
d 0.48625 1 2 cbr 210 ------- 2 1.0 3.1 103 107
+ 0.49 1 2 cbr 210 ------- 2 1.0 3.1 104 108
d 0.49 1 2 cbr 210 ------- 2 1.0 3.1 104 108
+ 0.49375 1 2 cbr 210 ------- 2 1.0 3.1 105 109
d 0.49375 1 2 cbr 210 ------- 2 1.0 3.1 105 109
+ 0.4975 1 2 cbr 210 ------- 2 1.0 3.1 106 110
d 0.4975 1 2 cbr 210 ------- 2 1.0 3.1 106 110
+ 0.50125 1 2 cbr 210 ------- 2 1.0 3.1 107 111
d 0.50125 1 2 cbr 210 ------- 2 1.0 3.1 107 111
+ 0.505 1 2 cbr 210 ------- 2 1.0 3.1 108 112
d 0.505 1 2 cbr 210 ------- 2 1.0 3.1 108 112
+ 0.50875 1 2 cbr 210 ------- 2 1.0 3.1 109 113
d 0.50875 1 2 cbr 210 ------- 2 1.0 3.1 109 113
+ 0.5125 1 2 cbr 210 ------- 2 1.0 3.1 110 114
d 0.5125 1 2 cbr 210 ------- 2 1.0 3.1 110 114
+ 0.51625 1 2 cbr 210 ------- 2 1.0 3.1 111 115
d 0.51625 1 2 cbr 210 ------- 2 1.0 3.1 111 115
+ 0.52 1 2 cbr 210 ------- 2 1.0 3.1 112 116
d 0.52 1 2 cbr 210 ------- 2 1.0 3.1 112 116
+ 0.52375 1 2 cbr 210 ------- 2 1.0 3.1 113 117
d 0.52375 1 2 cbr 210 ------- 2 1.0 3.1 113 117
+ 0.5275 1 2 cbr 210 ------- 2 1.0 3.1 114 118
d 0.5275 1 2 cbr 210 ------- 2 1.0 3.1 114 118
+ 0.53125 1 2 cbr 210 ------- 2 1.0 3.1 115 119
d 0.53125 1 2 cbr 210 ------- 2 1.0 3.1 115 119
+ 0.535 1 2 cbr 210 ------- 2 1.0 3.1 116 120
d 0.535 1 2 cbr 210 ------- 2 1.0 3.1 116 120
r 0.536 1 2 cbr 210 ------- 2 1.0 3.1 1 1
+ 0.536 2 3 cbr 210 ------- 2 1.0 3.1 1 1
- 0.536 2 3 tcp 1040 ------- 1 0.0 3.0 1 84
+ 0.53875 1 2 cbr 210 ------- 2 1.0 3.1 117 121
d 0.53875 1 2 cbr 210 ------- 2 1.0 3.1 117 121
+ 0.5425 1 2 cbr 210 ------- 2 1.0 3.1 118 122
d 0.5425 1 2 cbr 210 ------- 2 1.0 3.1 118 122
r 0.546 2 3 cbr 210 ------- 2 1.0 3.1 0 0
+ 0.54625 1 2 cbr 210 ------- 2 1.0 3.1 119 123
d 0.54625 1 2 cbr 210 ------- 2 1.0 3.1 119 123
+ 0.55 1 2 cbr 210 ------- 2 1.0 3.1 120 124
d 0.55 1 2 cbr 210 ------- 2 1.0 3.1 120 124
+ 0.55375 1 2 cbr 210 ------- 2 1.0 3.1 121 125
d 0.55375 1 2 cbr 210 ------- 2 1.0 3.1 121 125
+ 0.5575 1 2 cbr 210 ------- 2 1.0 3.1 122 126
d 0.5575 1 2 cbr 210 ------- 2 1.0 3.1 122 126
+ 0.56125 1 2 cbr 210 ------- 2 1.0 3.1 123 127
d 0.56125 1 2 cbr 210 ------- 2 1.0 3.1 123 127
+ 0.565 1 2 cbr 210 ------- 2 1.0 3.1 124 128
d 0.565 1 2 cbr 210 ------- 2 1.0 3.1 124 128
+ 0.56875 1 2 cbr 210 ------- 2 1.0 3.1 125 129
d 0.56875 1 2 cbr 210 ------- 2 1.0 3.1 125 129
+ 0.5725 1 2 cbr 210 ------- 2 1.0 3.1 126 130
d 0.5725 1 2 cbr 210 ------- 2 1.0 3.1 126 130
+ 0.57625 1 2 cbr 210 ------- 2 1.0 3.1 127 131
d 0.57625 1 2 cbr 210 ------- 2 1.0 3.1 127 131
+ 0.58 1 2 cbr 210 ------- 2 1.0 3.1 128 132
d 0.58 1 2 cbr 210 ------- 2 1.0 3.1 128 132
+ 0.58375 1 2 cbr 210 ------- 2 1.0 3.1 129 133
d 0.58375 1 2 cbr 210 ------- 2 1.0 3.1 129 133
+ 0.5875 1 2 cbr 210 ------- 2 1.0 3.1 130 134
d 0.5875 1 2 cbr 210 ------- 2 1.0 3.1 130 134
+ 0.59125 1 2 cbr 210 ------- 2 1.0 3.1 131 135
d 0.59125 1 2 cbr 210 ------- 2 1.0 3.1 131 135
+ 0.595 1 2 cbr 210 ------- 2 1.0 3.1 132 136
d 0.595 1 2 cbr 210 ------- 2 1.0 3.1 132 136
+ 0.59875 1 2 cbr 210 ------- 2 1.0 3.1 133 137
d 0.59875 1 2 cbr 210 ------- 2 1.0 3.1 133 137
+ 0.6025 1 2 cbr 210 ------- 2 1.0 3.1 134 138
d 0.6025 1 2 cbr 210 ------- 2 1.0 3.1 134 138
- 0.604 1 2 cbr 210 ------- 2 1.0 3.1 3 3
+ 0.60625 1 2 cbr 210 ------- 2 1.0 3.1 135 139
+ 0.61 1 2 cbr 210 ------- 2 1.0 3.1 136 140
d 0.61 1 2 cbr 210 ------- 2 1.0 3.1 136 140
+ 0.61375 1 2 cbr 210 ------- 2 1.0 3.1 137 141
d 0.61375 1 2 cbr 210 ------- 2 1.0 3.1 137 141
+ 0.6175 1 2 cbr 210 ------- 2 1.0 3.1 138 142
d 0.6175 1 2 cbr 210 ------- 2 1.0 3.1 138 142
+ 0.62125 1 2 cbr 210 ------- 2 1.0 3.1 139 143
d 0.62125 1 2 cbr 210 ------- 2 1.0 3.1 139 143
+ 0.625 1 2 cbr 210 ------- 2 1.0 3.1 140 144
d 0.625 1 2 cbr 210 ------- 2 1.0 3.1 140 144
+ 0.62875 1 2 cbr 210 ------- 2 1.0 3.1 141 145
d 0.62875 1 2 cbr 210 ------- 2 1.0 3.1 141 145
+ 0.6325 1 2 cbr 210 ------- 2 1.0 3.1 142 146
d 0.6325 1 2 cbr 210 ------- 2 1.0 3.1 142 146
+ 0.63625 1 2 cbr 210 ------- 2 1.0 3.1 143 147
d 0.63625 1 2 cbr 210 ------- 2 1.0 3.1 143 147
+ 0.64 1 2 cbr 210 ------- 2 1.0 3.1 144 148
d 0.64 1 2 cbr 210 ------- 2 1.0 3.1 144 148
+ 0.64375 1 2 cbr 210 ------- 2 1.0 3.1 145 149
d 0.64375 1 2 cbr 210 ------- 2 1.0 3.1 145 149
+ 0.6475 1 2 cbr 210 ------- 2 1.0 3.1 146 150
d 0.6475 1 2 cbr 210 ------- 2 1.0 3.1 146 150
+ 0.65125 1 2 cbr 210 ------- 2 1.0 3.1 147 151
d 0.65125 1 2 cbr 210 ------- 2 1.0 3.1 147 151
+ 0.655 1 2 cbr 210 ------- 2 1.0 3.1 148 152
d 0.655 1 2 cbr 210 ------- 2 1.0 3.1 148 152
+ 0.65875 1 2 cbr 210 ------- 2 1.0 3.1 149 153
d 0.65875 1 2 cbr 210 ------- 2 1.0 3.1 149 153
+ 0.6625 1 2 cbr 210 ------- 2 1.0 3.1 150 154
d 0.6625 1 2 cbr 210 ------- 2 1.0 3.1 150 154
+ 0.66625 1 2 cbr 210 ------- 2 1.0 3.1 151 155
d 0.66625 1 2 cbr 210 ------- 2 1.0 3.1 151 155
+ 0.67 1 2 cbr 210 ------- 2 1.0 3.1 152 156
d 0.67 1 2 cbr 210 ------- 2 1.0 3.1 152 156
+ 0.67375 1 2 cbr 210 ------- 2 1.0 3.1 153 157
d 0.67375 1 2 cbr 210 ------- 2 1.0 3.1 153 157
+ 0.6775 1 2 cbr 210 ------- 2 1.0 3.1 154 158
d 0.6775 1 2 cbr 210 ------- 2 1.0 3.1 154 158
+ 0.68125 1 2 cbr 210 ------- 2 1.0 3.1 155 159
d 0.68125 1 2 cbr 210 ------- 2 1.0 3.1 155 159
+ 0.685 1 2 cbr 210 ------- 2 1.0 3.1 156 160
d 0.685 1 2 cbr 210 ------- 2 1.0 3.1 156 160
+ 0.68875 1 2 cbr 210 ------- 2 1.0 3.1 157 161
d 0.68875 1 2 cbr 210 ------- 2 1.0 3.1 157 161
+ 0.6925 1 2 cbr 210 ------- 2 1.0 3.1 158 162
d 0.6925 1 2 cbr 210 ------- 2 1.0 3.1 158 162
+ 0.69625 1 2 cbr 210 ------- 2 1.0 3.1 159 163
d 0.69625 1 2 cbr 210 ------- 2 1.0 3.1 159 163
+ 0.7 1 2 cbr 210 ------- 2 1.0 3.1 160 164
d 0.7 1 2 cbr 210 ------- 2 1.0 3.1 160 164
+ 0.70375 1 2 cbr 210 ------- 2 1.0 3.1 161 165
d 0.70375 1 2 cbr 210 ------- 2 1.0 3.1 161 165
r 0.704 1 2 cbr 210 ------- 2 1.0 3.1 2 2
+ 0.704 2 3 cbr 210 ------- 2 1.0 3.1 2 2
+ 0.704064 0 2 tcp 1040 ---A--- 1 0.0 3.0 1 166
- 0.704064 0 2 tcp 1040 ---A--- 1 0.0 3.0 1 166
+ 0.7075 1 2 cbr 210 ------- 2 1.0 3.1 162 167
d 0.7075 1 2 cbr 210 ------- 2 1.0 3.1 162 167
+ 0.71125 1 2 cbr 210 ------- 2 1.0 3.1 163 168
d 0.71125 1 2 cbr 210 ------- 2 1.0 3.1 163 168
r 0.714896 0 2 tcp 1040 ---A--- 1 0.0 3.0 1 166
+ 0.714896 2 3 tcp 1040 ---A--- 1 0.0 3.0 1 166
+ 0.715 1 2 cbr 210 ------- 2 1.0 3.1 164 169
d 0.715 1 2 cbr 210 ------- 2 1.0 3.1 164 169
+ 0.71875 1 2 cbr 210 ------- 2 1.0 3.1 165 170
d 0.71875 1 2 cbr 210 ------- 2 1.0 3.1 165 170
+ 0.7225 1 2 cbr 210 ------- 2 1.0 3.1 166 171
d 0.7225 1 2 cbr 210 ------- 2 1.0 3.1 166 171
+ 0.72625 1 2 cbr 210 ------- 2 1.0 3.1 167 172
d 0.72625 1 2 cbr 210 ------- 2 1.0 3.1 167 172
+ 0.73 1 2 cbr 210 ------- 2 1.0 3.1 168 173
d 0.73 1 2 cbr 210 ------- 2 1.0 3.1 168 173
+ 0.73375 1 2 cbr 210 ------- 2 1.0 3.1 169 174
d 0.73375 1 2 cbr 210 ------- 2 1.0 3.1 169 174
+ 0.7375 1 2 cbr 210 ------- 2 1.0 3.1 170 175
d 0.7375 1 2 cbr 210 ------- 2 1.0 3.1 170 175
+ 0.74125 1 2 cbr 210 ------- 2 1.0 3.1 171 176
d 0.74125 1 2 cbr 210 ------- 2 1.0 3.1 171 176
+ 0.745 1 2 cbr 210 ------- 2 1.0 3.1 172 177
d 0.745 1 2 cbr 210 ------- 2 1.0 3.1 172 177
+ 0.74875 1 2 cbr 210 ------- 2 1.0 3.1 173 178
d 0.74875 1 2 cbr 210 ------- 2 1.0 3.1 173 178
+ 0.7525 1 2 cbr 210 ------- 2 1.0 3.1 174 179
d 0.7525 1 2 cbr 210 ------- 2 1.0 3.1 174 179
+ 0.75625 1 2 cbr 210 ------- 2 1.0 3.1 175 180
d 0.75625 1 2 cbr 210 ------- 2 1.0 3.1 175 180
+ 0.76 1 2 cbr 210 ------- 2 1.0 3.1 176 181
d 0.76 1 2 cbr 210 ------- 2 1.0 3.1 176 181
+ 0.76375 1 2 cbr 210 ------- 2 1.0 3.1 177 182
d 0.76375 1 2 cbr 210 ------- 2 1.0 3.1 177 182
+ 0.7675 1 2 cbr 210 ------- 2 1.0 3.1 178 183
d 0.7675 1 2 cbr 210 ------- 2 1.0 3.1 178 183
+ 0.77125 1 2 cbr 210 ------- 2 1.0 3.1 179 184
d 0.77125 1 2 cbr 210 ------- 2 1.0 3.1 179 184
- 0.772 1 2 cbr 210 ------- 2 1.0 3.1 4 4
+ 0.775 1 2 cbr 210 ------- 2 1.0 3.1 180 185
+ 0.77875 1 2 cbr 210 ------- 2 1.0 3.1 181 186
d 0.77875 1 2 cbr 210 ------- 2 1.0 3.1 181 186
+ 0.7825 1 2 cbr 210 ------- 2 1.0 3.1 182 187
d 0.7825 1 2 cbr 210 ------- 2 1.0 3.1 182 187
+ 0.78625 1 2 cbr 210 ------- 2 1.0 3.1 183 188
d 0.78625 1 2 cbr 210 ------- 2 1.0 3.1 183 188
+ 0.79 1 2 cbr 210 ------- 2 1.0 3.1 184 189
d 0.79 1 2 cbr 210 ------- 2 1.0 3.1 184 189
+ 0.79375 1 2 cbr 210 ------- 2 1.0 3.1 185 190
d 0.79375 1 2 cbr 210 ------- 2 1.0 3.1 185 190
+ 0.7975 1 2 cbr 210 ------- 2 1.0 3.1 186 191
d 0.7975 1 2 cbr 210 ------- 2 1.0 3.1 186 191
+ 0.80125 1 2 cbr 210 ------- 2 1.0 3.1 187 192
d 0.80125 1 2 cbr 210 ------- 2 1.0 3.1 187 192
+ 0.805 1 2 cbr 210 ------- 2 1.0 3.1 188 193
d 0.805 1 2 cbr 210 ------- 2 1.0 3.1 188 193
+ 0.80875 1 2 cbr 210 ------- 2 1.0 3.1 189 194
d 0.80875 1 2 cbr 210 ------- 2 1.0 3.1 189 194
+ 0.8125 1 2 cbr 210 ------- 2 1.0 3.1 190 195
d 0.8125 1 2 cbr 210 ------- 2 1.0 3.1 190 195
+ 0.81625 1 2 cbr 210 ------- 2 1.0 3.1 191 196
d 0.81625 1 2 cbr 210 ------- 2 1.0 3.1 191 196
+ 0.82 1 2 cbr 210 ------- 2 1.0 3.1 192 197
d 0.82 1 2 cbr 210 ------- 2 1.0 3.1 192 197
+ 0.82375 1 2 cbr 210 ------- 2 1.0 3.1 193 198
d 0.82375 1 2 cbr 210 ------- 2 1.0 3.1 193 198
+ 0.8275 1 2 cbr 210 ------- 2 1.0 3.1 194 199
d 0.8275 1 2 cbr 210 ------- 2 1.0 3.1 194 199
+ 0.83125 1 2 cbr 210 ------- 2 1.0 3.1 195 200
d 0.83125 1 2 cbr 210 ------- 2 1.0 3.1 195 200
+ 0.835 1 2 cbr 210 ------- 2 1.0 3.1 196 201
d 0.835 1 2 cbr 210 ------- 2 1.0 3.1 196 201
+ 0.83875 1 2 cbr 210 ------- 2 1.0 3.1 197 202
d 0.83875 1 2 cbr 210 ------- 2 1.0 3.1 197 202
+ 0.8425 1 2 cbr 210 ------- 2 1.0 3.1 198 203
d 0.8425 1 2 cbr 210 ------- 2 1.0 3.1 198 203
+ 0.84625 1 2 cbr 210 ------- 2 1.0 3.1 199 204
d 0.84625 1 2 cbr 210 ------- 2 1.0 3.1 199 204
+ 0.85 1 2 cbr 210 ------- 2 1.0 3.1 200 205
d 0.85 1 2 cbr 210 ------- 2 1.0 3.1 200 205
+ 0.85375 1 2 cbr 210 ------- 2 1.0 3.1 201 206
d 0.85375 1 2 cbr 210 ------- 2 1.0 3.1 201 206
+ 0.8575 1 2 cbr 210 ------- 2 1.0 3.1 202 207
d 0.8575 1 2 cbr 210 ------- 2 1.0 3.1 202 207
+ 0.86125 1 2 cbr 210 ------- 2 1.0 3.1 203 208
d 0.86125 1 2 cbr 210 ------- 2 1.0 3.1 203 208
+ 0.865 1 2 cbr 210 ------- 2 1.0 3.1 204 209
d 0.865 1 2 cbr 210 ------- 2 1.0 3.1 204 209
+ 0.86875 1 2 cbr 210 ------- 2 1.0 3.1 205 210
d 0.86875 1 2 cbr 210 ------- 2 1.0 3.1 205 210
r 0.872 1 2 cbr 210 ------- 2 1.0 3.1 3 3
+ 0.872 2 3 cbr 210 ------- 2 1.0 3.1 3 3
+ 0.8725 1 2 cbr 210 ------- 2 1.0 3.1 206 211
d 0.8725 1 2 cbr 210 ------- 2 1.0 3.1 206 211
+ 0.87625 1 2 cbr 210 ------- 2 1.0 3.1 207 212
d 0.87625 1 2 cbr 210 ------- 2 1.0 3.1 207 212
+ 0.88 1 2 cbr 210 ------- 2 1.0 3.1 208 213
d 0.88 1 2 cbr 210 ------- 2 1.0 3.1 208 213
+ 0.88375 1 2 cbr 210 ------- 2 1.0 3.1 209 214
d 0.88375 1 2 cbr 210 ------- 2 1.0 3.1 209 214
+ 0.8875 1 2 cbr 210 ------- 2 1.0 3.1 210 215
d 0.8875 1 2 cbr 210 ------- 2 1.0 3.1 210 215
+ 0.89125 1 2 cbr 210 ------- 2 1.0 3.1 211 216
d 0.89125 1 2 cbr 210 ------- 2 1.0 3.1 211 216
+ 0.895 1 2 cbr 210 ------- 2 1.0 3.1 212 217
d 0.895 1 2 cbr 210 ------- 2 1.0 3.1 212 217
+ 0.89875 1 2 cbr 210 ------- 2 1.0 3.1 213 218
d 0.89875 1 2 cbr 210 ------- 2 1.0 3.1 213 218
+ 0.9025 1 2 cbr 210 ------- 2 1.0 3.1 214 219
d 0.9025 1 2 cbr 210 ------- 2 1.0 3.1 214 219
+ 0.90625 1 2 cbr 210 ------- 2 1.0 3.1 215 220
d 0.90625 1 2 cbr 210 ------- 2 1.0 3.1 215 220
+ 0.91 1 2 cbr 210 ------- 2 1.0 3.1 216 221
d 0.91 1 2 cbr 210 ------- 2 1.0 3.1 216 221
+ 0.91375 1 2 cbr 210 ------- 2 1.0 3.1 217 222
d 0.91375 1 2 cbr 210 ------- 2 1.0 3.1 217 222
+ 0.9175 1 2 cbr 210 ------- 2 1.0 3.1 218 223
d 0.9175 1 2 cbr 210 ------- 2 1.0 3.1 218 223
+ 0.92125 1 2 cbr 210 ------- 2 1.0 3.1 219 224
d 0.92125 1 2 cbr 210 ------- 2 1.0 3.1 219 224
+ 0.925 1 2 cbr 210 ------- 2 1.0 3.1 220 225
d 0.925 1 2 cbr 210 ------- 2 1.0 3.1 220 225
+ 0.92875 1 2 cbr 210 ------- 2 1.0 3.1 221 226
d 0.92875 1 2 cbr 210 ------- 2 1.0 3.1 221 226
+ 0.9325 1 2 cbr 210 ------- 2 1.0 3.1 222 227
d 0.9325 1 2 cbr 210 ------- 2 1.0 3.1 222 227
+ 0.93625 1 2 cbr 210 ------- 2 1.0 3.1 223 228
d 0.93625 1 2 cbr 210 ------- 2 1.0 3.1 223 228
- 0.94 1 2 cbr 210 ------- 2 1.0 3.1 5 5
+ 0.94 1 2 cbr 210 ------- 2 1.0 3.1 224 229
+ 0.94375 1 2 cbr 210 ------- 2 1.0 3.1 225 230
d 0.94375 1 2 cbr 210 ------- 2 1.0 3.1 225 230
+ 0.9475 1 2 cbr 210 ------- 2 1.0 3.1 226 231
d 0.9475 1 2 cbr 210 ------- 2 1.0 3.1 226 231
+ 0.95125 1 2 cbr 210 ------- 2 1.0 3.1 227 232
d 0.95125 1 2 cbr 210 ------- 2 1.0 3.1 227 232
+ 0.955 1 2 cbr 210 ------- 2 1.0 3.1 228 233
d 0.955 1 2 cbr 210 ------- 2 1.0 3.1 228 233
+ 0.95875 1 2 cbr 210 ------- 2 1.0 3.1 229 234
d 0.95875 1 2 cbr 210 ------- 2 1.0 3.1 229 234
+ 0.9625 1 2 cbr 210 ------- 2 1.0 3.1 230 235
d 0.9625 1 2 cbr 210 ------- 2 1.0 3.1 230 235
+ 0.96625 1 2 cbr 210 ------- 2 1.0 3.1 231 236
d 0.96625 1 2 cbr 210 ------- 2 1.0 3.1 231 236
+ 0.97 1 2 cbr 210 ------- 2 1.0 3.1 232 237
d 0.97 1 2 cbr 210 ------- 2 1.0 3.1 232 237
+ 0.97375 1 2 cbr 210 ------- 2 1.0 3.1 233 238
d 0.97375 1 2 cbr 210 ------- 2 1.0 3.1 233 238
+ 0.9775 1 2 cbr 210 ------- 2 1.0 3.1 234 239
d 0.9775 1 2 cbr 210 ------- 2 1.0 3.1 234 239
+ 0.98125 1 2 cbr 210 ------- 2 1.0 3.1 235 240
d 0.98125 1 2 cbr 210 ------- 2 1.0 3.1 235 240
+ 0.985 1 2 cbr 210 ------- 2 1.0 3.1 236 241
d 0.985 1 2 cbr 210 ------- 2 1.0 3.1 236 241
+ 0.98875 1 2 cbr 210 ------- 2 1.0 3.1 237 242
d 0.98875 1 2 cbr 210 ------- 2 1.0 3.1 237 242
+ 0.9925 1 2 cbr 210 ------- 2 1.0 3.1 238 243
d 0.9925 1 2 cbr 210 ------- 2 1.0 3.1 238 243
+ 0.99625 1 2 cbr 210 ------- 2 1.0 3.1 239 244
d 0.99625 1 2 cbr 210 ------- 2 1.0 3.1 239 244
+ 1 1 2 cbr 210 ------- 2 1.0 3.1 240 245
d 1 1 2 cbr 210 ------- 2 1.0 3.1 240 245
+ 1.00375 1 2 cbr 210 ------- 2 1.0 3.1 241 246
d 1.00375 1 2 cbr 210 ------- 2 1.0 3.1 241 246
+ 1.0075 1 2 cbr 210 ------- 2 1.0 3.1 242 247
d 1.0075 1 2 cbr 210 ------- 2 1.0 3.1 242 247
+ 1.01125 1 2 cbr 210 ------- 2 1.0 3.1 243 248
d 1.01125 1 2 cbr 210 ------- 2 1.0 3.1 243 248
+ 1.015 1 2 cbr 210 ------- 2 1.0 3.1 244 249
d 1.015 1 2 cbr 210 ------- 2 1.0 3.1 244 249
+ 1.01875 1 2 cbr 210 ------- 2 1.0 3.1 245 250
d 1.01875 1 2 cbr 210 ------- 2 1.0 3.1 245 250
+ 1.0225 1 2 cbr 210 ------- 2 1.0 3.1 246 251
d 1.0225 1 2 cbr 210 ------- 2 1.0 3.1 246 251
+ 1.02625 1 2 cbr 210 ------- 2 1.0 3.1 247 252
d 1.02625 1 2 cbr 210 ------- 2 1.0 3.1 247 252
+ 1.03 1 2 cbr 210 ------- 2 1.0 3.1 248 253
d 1.03 1 2 cbr 210 ------- 2 1.0 3.1 248 253
+ 1.03375 1 2 cbr 210 ------- 2 1.0 3.1 249 254
d 1.03375 1 2 cbr 210 ------- 2 1.0 3.1 249 254
+ 1.0375 1 2 cbr 210 ------- 2 1.0 3.1 250 255
d 1.0375 1 2 cbr 210 ------- 2 1.0 3.1 250 255
r 1.04 1 2 cbr 210 ------- 2 1.0 3.1 4 4
+ 1.04 2 3 cbr 210 ------- 2 1.0 3.1 4 4
+ 1.04125 1 2 cbr 210 ------- 2 1.0 3.1 251 256
d 1.04125 1 2 cbr 210 ------- 2 1.0 3.1 251 256
+ 1.045 1 2 cbr 210 ------- 2 1.0 3.1 252 257
d 1.045 1 2 cbr 210 ------- 2 1.0 3.1 252 257
+ 1.04875 1 2 cbr 210 ------- 2 1.0 3.1 253 258
d 1.04875 1 2 cbr 210 ------- 2 1.0 3.1 253 258
+ 1.0525 1 2 cbr 210 ------- 2 1.0 3.1 254 259
d 1.0525 1 2 cbr 210 ------- 2 1.0 3.1 254 259
+ 1.05625 1 2 cbr 210 ------- 2 1.0 3.1 255 260
d 1.05625 1 2 cbr 210 ------- 2 1.0 3.1 255 260
+ 1.06 1 2 cbr 210 ------- 2 1.0 3.1 256 261
d 1.06 1 2 cbr 210 ------- 2 1.0 3.1 256 261
+ 1.06375 1 2 cbr 210 ------- 2 1.0 3.1 257 262
d 1.06375 1 2 cbr 210 ------- 2 1.0 3.1 257 262
+ 1.0675 1 2 cbr 210 ------- 2 1.0 3.1 258 263
d 1.0675 1 2 cbr 210 ------- 2 1.0 3.1 258 263
+ 1.07125 1 2 cbr 210 ------- 2 1.0 3.1 259 264
d 1.07125 1 2 cbr 210 ------- 2 1.0 3.1 259 264
+ 1.075 1 2 cbr 210 ------- 2 1.0 3.1 260 265
d 1.075 1 2 cbr 210 ------- 2 1.0 3.1 260 265
+ 1.07875 1 2 cbr 210 ------- 2 1.0 3.1 261 266
d 1.07875 1 2 cbr 210 ------- 2 1.0 3.1 261 266
+ 1.0825 1 2 cbr 210 ------- 2 1.0 3.1 262 267
d 1.0825 1 2 cbr 210 ------- 2 1.0 3.1 262 267
+ 1.08625 1 2 cbr 210 ------- 2 1.0 3.1 263 268
d 1.08625 1 2 cbr 210 ------- 2 1.0 3.1 263 268
+ 1.09 1 2 cbr 210 ------- 2 1.0 3.1 264 269
d 1.09 1 2 cbr 210 ------- 2 1.0 3.1 264 269
+ 1.09375 1 2 cbr 210 ------- 2 1.0 3.1 265 270
d 1.09375 1 2 cbr 210 ------- 2 1.0 3.1 265 270
+ 1.0975 1 2 cbr 210 ------- 2 1.0 3.1 266 271
d 1.0975 1 2 cbr 210 ------- 2 1.0 3.1 266 271
+ 1.10125 1 2 cbr 210 ------- 2 1.0 3.1 267 272
d 1.10125 1 2 cbr 210 ------- 2 1.0 3.1 267 272
+ 1.105 1 2 cbr 210 ------- 2 1.0 3.1 268 273
d 1.105 1 2 cbr 210 ------- 2 1.0 3.1 268 273
- 1.108 1 2 cbr 210 ------- 2 1.0 3.1 6 6
+ 1.10875 1 2 cbr 210 ------- 2 1.0 3.1 269 274
+ 1.1125 1 2 cbr 210 ------- 2 1.0 3.1 270 275
d 1.1125 1 2 cbr 210 ------- 2 1.0 3.1 270 275
+ 1.11625 1 2 cbr 210 ------- 2 1.0 3.1 271 276
d 1.11625 1 2 cbr 210 ------- 2 1.0 3.1 271 276
+ 1.12 1 2 cbr 210 ------- 2 1.0 3.1 272 277
d 1.12 1 2 cbr 210 ------- 2 1.0 3.1 272 277
+ 1.12375 1 2 cbr 210 ------- 2 1.0 3.1 273 278
d 1.12375 1 2 cbr 210 ------- 2 1.0 3.1 273 278
+ 1.1275 1 2 cbr 210 ------- 2 1.0 3.1 274 279
d 1.1275 1 2 cbr 210 ------- 2 1.0 3.1 274 279
+ 1.13125 1 2 cbr 210 ------- 2 1.0 3.1 275 280
d 1.13125 1 2 cbr 210 ------- 2 1.0 3.1 275 280
+ 1.135 1 2 cbr 210 ------- 2 1.0 3.1 276 281
d 1.135 1 2 cbr 210 ------- 2 1.0 3.1 276 281
+ 1.13875 1 2 cbr 210 ------- 2 1.0 3.1 277 282
d 1.13875 1 2 cbr 210 ------- 2 1.0 3.1 277 282
+ 1.1425 1 2 cbr 210 ------- 2 1.0 3.1 278 283
d 1.1425 1 2 cbr 210 ------- 2 1.0 3.1 278 283
+ 1.14625 1 2 cbr 210 ------- 2 1.0 3.1 279 284
d 1.14625 1 2 cbr 210 ------- 2 1.0 3.1 279 284
+ 1.15 1 2 cbr 210 ------- 2 1.0 3.1 280 285
d 1.15 1 2 cbr 210 ------- 2 1.0 3.1 280 285
+ 1.15375 1 2 cbr 210 ------- 2 1.0 3.1 281 286
d 1.15375 1 2 cbr 210 ------- 2 1.0 3.1 281 286
+ 1.1575 1 2 cbr 210 ------- 2 1.0 3.1 282 287
d 1.1575 1 2 cbr 210 ------- 2 1.0 3.1 282 287
+ 1.16125 1 2 cbr 210 ------- 2 1.0 3.1 283 288
d 1.16125 1 2 cbr 210 ------- 2 1.0 3.1 283 288
+ 1.165 1 2 cbr 210 ------- 2 1.0 3.1 284 289
d 1.165 1 2 cbr 210 ------- 2 1.0 3.1 284 289
+ 1.16875 1 2 cbr 210 ------- 2 1.0 3.1 285 290
d 1.16875 1 2 cbr 210 ------- 2 1.0 3.1 285 290
+ 1.1725 1 2 cbr 210 ------- 2 1.0 3.1 286 291
d 1.1725 1 2 cbr 210 ------- 2 1.0 3.1 286 291
+ 1.17625 1 2 cbr 210 ------- 2 1.0 3.1 287 292
d 1.17625 1 2 cbr 210 ------- 2 1.0 3.1 287 292
+ 1.18 1 2 cbr 210 ------- 2 1.0 3.1 288 293
d 1.18 1 2 cbr 210 ------- 2 1.0 3.1 288 293
+ 1.18375 1 2 cbr 210 ------- 2 1.0 3.1 289 294
d 1.18375 1 2 cbr 210 ------- 2 1.0 3.1 289 294
+ 1.1875 1 2 cbr 210 ------- 2 1.0 3.1 290 295
d 1.1875 1 2 cbr 210 ------- 2 1.0 3.1 290 295
+ 1.19125 1 2 cbr 210 ------- 2 1.0 3.1 291 296
d 1.19125 1 2 cbr 210 ------- 2 1.0 3.1 291 296
+ 1.195 1 2 cbr 210 ------- 2 1.0 3.1 292 297
d 1.195 1 2 cbr 210 ------- 2 1.0 3.1 292 297
+ 1.19875 1 2 cbr 210 ------- 2 1.0 3.1 293 298
d 1.19875 1 2 cbr 210 ------- 2 1.0 3.1 293 298
+ 1.2025 1 2 cbr 210 ------- 2 1.0 3.1 294 299
d 1.2025 1 2 cbr 210 ------- 2 1.0 3.1 294 299
+ 1.20625 1 2 cbr 210 ------- 2 1.0 3.1 295 300
d 1.20625 1 2 cbr 210 ------- 2 1.0 3.1 295 300
r 1.208 1 2 cbr 210 ------- 2 1.0 3.1 5 5
+ 1.208 2 3 cbr 210 ------- 2 1.0 3.1 5 5
+ 1.21 1 2 cbr 210 ------- 2 1.0 3.1 296 301
d 1.21 1 2 cbr 210 ------- 2 1.0 3.1 296 301
+ 1.21375 1 2 cbr 210 ------- 2 1.0 3.1 297 302
d 1.21375 1 2 cbr 210 ------- 2 1.0 3.1 297 302
+ 1.2175 1 2 cbr 210 ------- 2 1.0 3.1 298 303
d 1.2175 1 2 cbr 210 ------- 2 1.0 3.1 298 303
+ 1.22125 1 2 cbr 210 ------- 2 1.0 3.1 299 304
d 1.22125 1 2 cbr 210 ------- 2 1.0 3.1 299 304
+ 1.225 1 2 cbr 210 ------- 2 1.0 3.1 300 305
d 1.225 1 2 cbr 210 ------- 2 1.0 3.1 300 305
+ 1.22875 1 2 cbr 210 ------- 2 1.0 3.1 301 306
d 1.22875 1 2 cbr 210 ------- 2 1.0 3.1 301 306
+ 1.2325 1 2 cbr 210 ------- 2 1.0 3.1 302 307
d 1.2325 1 2 cbr 210 ------- 2 1.0 3.1 302 307
+ 1.23625 1 2 cbr 210 ------- 2 1.0 3.1 303 308
d 1.23625 1 2 cbr 210 ------- 2 1.0 3.1 303 308
+ 1.24 1 2 cbr 210 ------- 2 1.0 3.1 304 309
d 1.24 1 2 cbr 210 ------- 2 1.0 3.1 304 309
+ 1.24375 1 2 cbr 210 ------- 2 1.0 3.1 305 310
d 1.24375 1 2 cbr 210 ------- 2 1.0 3.1 305 310
+ 1.2475 1 2 cbr 210 ------- 2 1.0 3.1 306 311
d 1.2475 1 2 cbr 210 ------- 2 1.0 3.1 306 311
+ 1.25125 1 2 cbr 210 ------- 2 1.0 3.1 307 312
d 1.25125 1 2 cbr 210 ------- 2 1.0 3.1 307 312
+ 1.255 1 2 cbr 210 ------- 2 1.0 3.1 308 313
d 1.255 1 2 cbr 210 ------- 2 1.0 3.1 308 313
+ 1.25875 1 2 cbr 210 ------- 2 1.0 3.1 309 314
d 1.25875 1 2 cbr 210 ------- 2 1.0 3.1 309 314
+ 1.2625 1 2 cbr 210 ------- 2 1.0 3.1 310 315
d 1.2625 1 2 cbr 210 ------- 2 1.0 3.1 310 315
+ 1.26625 1 2 cbr 210 ------- 2 1.0 3.1 311 316
d 1.26625 1 2 cbr 210 ------- 2 1.0 3.1 311 316
+ 1.27 1 2 cbr 210 ------- 2 1.0 3.1 312 317
d 1.27 1 2 cbr 210 ------- 2 1.0 3.1 312 317
+ 1.27375 1 2 cbr 210 ------- 2 1.0 3.1 313 318
d 1.27375 1 2 cbr 210 ------- 2 1.0 3.1 313 318
- 1.276 1 2 cbr 210 ------- 2 1.0 3.1 7 7
+ 1.2775 1 2 cbr 210 ------- 2 1.0 3.1 314 319
+ 1.28125 1 2 cbr 210 ------- 2 1.0 3.1 315 320
d 1.28125 1 2 cbr 210 ------- 2 1.0 3.1 315 320
+ 1.285 1 2 cbr 210 ------- 2 1.0 3.1 316 321
d 1.285 1 2 cbr 210 ------- 2 1.0 3.1 316 321
+ 1.28875 1 2 cbr 210 ------- 2 1.0 3.1 317 322
d 1.28875 1 2 cbr 210 ------- 2 1.0 3.1 317 322
+ 1.2925 1 2 cbr 210 ------- 2 1.0 3.1 318 323
d 1.2925 1 2 cbr 210 ------- 2 1.0 3.1 318 323
+ 1.29625 1 2 cbr 210 ------- 2 1.0 3.1 319 324
d 1.29625 1 2 cbr 210 ------- 2 1.0 3.1 319 324
+ 1.3 1 2 cbr 210 ------- 2 1.0 3.1 320 325
d 1.3 1 2 cbr 210 ------- 2 1.0 3.1 320 325
+ 1.30375 1 2 cbr 210 ------- 2 1.0 3.1 321 326
d 1.30375 1 2 cbr 210 ------- 2 1.0 3.1 321 326
+ 1.304064 0 2 tcp 1040 ---A--- 1 0.0 3.0 1 327
- 1.304064 0 2 tcp 1040 ---A--- 1 0.0 3.0 1 327
+ 1.3075 1 2 cbr 210 ------- 2 1.0 3.1 322 328
d 1.3075 1 2 cbr 210 ------- 2 1.0 3.1 322 328
+ 1.31125 1 2 cbr 210 ------- 2 1.0 3.1 323 329
d 1.31125 1 2 cbr 210 ------- 2 1.0 3.1 323 329
r 1.314896 0 2 tcp 1040 ---A--- 1 0.0 3.0 1 327
+ 1.314896 2 3 tcp 1040 ---A--- 1 0.0 3.0 1 327
+ 1.315 1 2 cbr 210 ------- 2 1.0 3.1 324 330
d 1.315 1 2 cbr 210 ------- 2 1.0 3.1 324 330
+ 1.31875 1 2 cbr 210 ------- 2 1.0 3.1 325 331
d 1.31875 1 2 cbr 210 ------- 2 1.0 3.1 325 331